3021
Atoms. Timestep: 57000000
1 -20.3546 -0.737909 5.7121
1 -20.0722 -0.610793 6.61279
1 -19.9549 0.18103 6.07206
10 -19.245 0.789828 6.01434
10 -19.037 0.183555 5.31662
13 -19.8723 0.436756 4.9757
7 -20.7825 0.626228 4.74244
6 -20.8005 1.31332 5.58212
2 -21.456 1.59336 4.92538
7 -21.3609 2.24136 4.15832
5 -22.2295 2.71746 4.3354
8 -22.2988 2.61814 5.29393
15 -21.3083 2.70479 5.56742
8 -21.9557 2.94812 6.30325
1 -21.7412 2.0198 6.53948
1 -21.0242 2.66257 6.60197
15 -20.0965 2.7079 6.93903
10 -20.3564 1.79945 7.0646
1 -21.1506 1.6289 7.49348
1 -21.3831 0.99878 8.24514
1 -20.6839 1.57828 8.55324
7 -20.9092 2.12164 9.3401
4 -21.7072 2.65099 9.57432
2 -21.7589 2.83119 8.66808
8 -22.3636 3.51204 8.14533
7 -22.9664 2.87105 8.58657
1 -23.3892 1.99696 8.49092
15 -23.2157 2.02672 7.5512
7 -23.4024 2.30342 6.69745
8 -23.7715 3.16 6.85363
8 -23.4384 3.99822 6.65674
1 -24.2639 4.55668 6.79313
2 -25.1661 4.68223 6.47091
1 -25.1629 3.78874 6.02455
1 -24.7988 3.85821 5.1674
5 -24.3598 3.54574 4.35394
12 -24.4065 2.8264 4.92043
1 -24.051 2.08067 5.39893
15 -24.072 1.07402 5.2123
11 -23.1838 0.966876 5.60709
4 -23.1216 0.0879698 5.31706
16 -23.2164 -0.0194451 4.29311
12 -23.4644 -0.514984 3.45433
1 -23.9873 0.284436 3.44701
10 -24.4163 -0.333178 3.99465
9 -24.1134 -1.22781 4.30143
9 -24.8493 -1.58281 3.87905
16 -25.5085 -1.66709 3.14739
1 -25.7398 -0.749582 3.38597
5 -25.3001 -0.715898 2.5121
9 -24.4832 -0.883085 2.91716
12 -24.0358 -1.37345 2.34652
1 -24.3983 -2.26153 2.19729
1 -23.866 -2.83197 1.58871
11 -23.2946 -3.48049 1.87297
11 -22.4436 -3.96753 1.82403
12 -22.4006 -3.14161 2.40353
11 -22.5633 -3.82066 3.08514
1 -21.8106 -4.25099 2.69141
16 -21.0489 -3.67927 2.68531
3 -20.846 -2.94498 3.2949
4 -21.8262 -2.80238 3.43662
12 -22.3033 -1.96724 3.38372
9 -22.9846 -1.81164 3.98595
16 -22.3178 -1.87004 4.73302
10 -22.2965 -2.82319 4.77659
11 -22.7249 -3.16763 3.97927
9 -23.2488 -2.68413 3.40577
1 -23.303 -2.23892 2.48642
12 -23.1952 -1.62503 1.73341
1 -22.5286 -2.2617 1.25884
1 -22.7161 -2.56135 0.397486
9 -23.2583 -2.92117 -0.328551
1 -23.2412 -3.66269 0.251616
5 -23.2622 -4.45023 0.782886
1 -24.2527 -4.49098 1.08651
11 -24.2359 -4.74808 2.06174
5 -24.7445 -3.88076 2.22222
11 -24.0003 -3.75603 2.85771
9 -24.168 -2.92705 3.23338
16 -25.1393 -2.78078 3.14807
13 -25.9358 -3.15568 3.42916
13 -26.0053 -2.60849 4.18537
9 -25.7561 -1.72993 4.42134
1 -26.1595 -0.879488 4.78486
1 -25.6581 -0.0882335 4.98356
4 -25.6199 -0.090968 5.95402
1 -25.9755 -0.86148 6.32375
10 -26.7823 -0.739166 5.82727
1 -27.1172 -1.27146 6.61208
11 -27.0671 -1.39306 7.67228
5 -26.6412 -1.88442 8.41669
5 -27.262 -2.17337 9.02757
1 -27.9398 -1.51081 9.15125
2 -27.7441 -0.609751 9.37418
9 -27.2045 -0.821382 8.58136
1 -27.2248 0.0936369 8.3333
1 -26.5561 -0.071217 7.6315
1 -25.902 -0.508471 8.14655
13 -24.9862 -0.3166 7.74954
10 -24.3596 0.354037 8.07601
1 -23.7392 0.862879 8.65649
4 -23.0661 0.968825 9.34874
1 -22.0845 0.986143 9.58747
17 -22.0432 0.234387 10.1542
14 -21.6544 -0.0887435 9.39881
1 -20.7792 -0.337099 9.1677
16 -20.6281 -1.17704 8.7067
13 -19.7868 -0.832035 8.37483
13 -19.4517 -1.5268 7.80893
10 -18.9625 -0.828745 7.35323
1 -19.016 -1.46055 6.53607
3 -18.9385 -2.08044 5.6886
3 -18.2113 -1.51164 5.28767
10 -18.0766 -0.628172 5.69907
15 -17.3889 -1.1724 6.10404
1 -17.0597 -1.96719 6.48393
1 -16.4178 -2.51403 5.99139
1 -15.5488 -2.36045 5.47965
1 -15.974 -1.51824 5.23484
17 -16.0833 -0.7819 4.63834
10 -16.9462 -0.466228 4.86816
1 -17.1734 -1.16101 4.26856
3 -18.079 -1.49638 4.21982
1 -17.5264 -1.69875 3.39183
1 -17.8413 -2.53343 3.0163
14 -17.4116 -3.00044 2.33183
6 -17.3024 -2.6753 1.44306
3 -16.5412 -2.50718 0.907236
1 -16.6068 -2.87646 -0.0190735
1 -17.4781 -2.80618 0.464
3 -17.6512 -1.92507 0.00733801
1 -17.98 -1.86298 -0.887289
1 -18.744 -1.29107 -0.640415
5 -19.4538 -1.14874 -1.26233
1 -19.6416 -2.07883 -1.10605
5 -20.0558 -2.12198 -1.98389
17 -20.0398 -3.02401 -1.6839
14 -20.9841 -2.79036 -1.63813
15 -20.7551 -3.32918 -2.38365
15 -21.1974 -4.1197 -2.63053
3 -21.3453 -4.96675 -2.1897
1 -20.8906 -5.61686 -2.75403
6 -20.248 -6.02416 -2.10142
1 -19.5045 -5.85079 -2.62229
1 -19.6789 -4.96021 -2.77724
15 -19.5915 -3.99517 -2.98908
1 -19.4041 -3.09997 -2.751
5 -19.3298 -2.18882 -2.88514
15 -20.108 -2.59169 -3.25523
5 -19.8441 -1.9405 -3.89539
15 -20.4874 -2.62496 -4.1253
7 -19.6012 -2.60944 -4.64049
17 -19.0406 -1.93437 -5.12745
5 -19.005 -1.2456 -4.47192
6 -18.1504 -1.37717 -5.03734
1 -18.4576 -0.470765 -4.75204
1 -18.0643 -0.032423 -3.9352
5 -18.2088 -1.00773 -3.79268
1 -17.3623 -1.01164 -4.26325
16 -16.577 -1.19312 -3.77907
1 -16.562 -0.27352 -4.15799
17 -16.5682 0.242394 -3.35583
7 -16.8467 0.276227 -2.44007
9 -17.8123 0.136148 -2.73725
5 -18.6467 -0.409765 -2.82522
1 -17.8155 -0.867189 -2.84074
5 -18.406 -1.60423 -2.83957
1 -18.0896 -2.52826 -3.00566
1 -17.9441 -2.87369 -2.15657
1 -17.0296 -3.1646 -2.37586
1 -16.478 -2.44569 -1.80687
15 -17.0126 -1.74599 -2.03379
15 -17.5391 -1.04329 -1.7323
5 -18.4651 -0.970737 -1.60761
6 -17.8604 -0.672086 -0.85511
1 -17.1523 -0.270619 -0.270631
16 -16.8443 -0.140855 0.660474
9 -16.3396 0.0388806 1.46304
9 -15.5208 0.430069 1.59677
13 -15.4497 0.0856023 0.711296
4 -14.9343 0.778219 0.289443
11 -15.2723 1.59368 -0.120488
1 -15.5276 1.83031 0.797296
9 -15.6013 1.55122 1.72983
1 -15.4647 2.48752 1.74648
16 -14.5517 2.23583 1.91818
1 -15.0639 1.85034 2.59042
9 -15.4353 0.94228 2.72468
1 -15.2655 1.38087 3.59395
10 -16.1795 1.32532 4.03567
9 -16.3134 0.814461 3.21358
10 -17.1187 0.988688 3.59703
9 -17.3338 1.29548 2.70106
13 -18.2724 0.911045 2.62804
1 -18.1219 0.412461 1.78382
9 -17.2853 0.607157 1.44042
1 -17.785 0.481758 0.601839
14 -18.353 -0.297879 0.732063
1 -17.9092 -0.739477 1.41053
11 -17.3957 -1.30351 1.94584
9 -16.5656 -0.823191 2.15484
1 -17.2595 -0.915931 2.80435
9 -16.6217 -0.391475 3.30329
10 -17.3139 -0.203966 3.93341
11 -17.8166 0.098348 3.18584
13 -18.5772 0.54316 3.56204
10 -18.0551 0.943508 4.34248
10 -17.6645 0.926803 5.2057
10 -18.2171 0.45379 5.86097
10 -17.9517 0.0822259 6.70493
14 -17.9392 -0.136223 7.69618
11 -17.9394 0.435532 8.46166
2 -17.2436 0.950253 8.88191
1 -17.5369 0.284309 9.47472
11 -18.2887 0.610394 10.0806
9 -17.3727 0.983522 10.254
1 -16.6305 0.351197 10.0645
7 -16.184 -0.404459 9.72865
1 -15.5695 -1.09155 9.34769
11 -15.3828 -0.815222 8.39378
1 -16.3597 -0.77418 8.29493
2 -16.4893 0.10523 7.91883
13 -16.6706 -0.63915 7.29482
10 -16.617 0.242956 6.72491
2 -16.4157 1.14848 6.96321
2 -15.7788 1.71389 7.51412
1 -14.8654 1.32792 7.31629
1 -14.7681 0.879504 8.22592
16 -14.8257 1.34877 9.02717
10 -14.2553 2.0436 9.21416
1 -14.3495 2.76515 8.61008
16 -15.0431 3.07511 7.94559
2 -15.7623 2.8013 7.40272
1 -16.7598 2.91713 7.45708
2 -16.8367 1.94395 7.45588
10 -17.7663 1.81048 7.00446
1 -18.2161 1.56155 7.86051
1 -18.0319 2.45084 8.18695
2 -17.325 1.83553 8.38466
4 -17.3517 2.26609 9.26761
1 -17.1437 3.24792 9.15138
13 -18.0828 3.40597 9.21239
10 -17.8467 4.27311 8.85458
8 -18.8145 4.48692 9.30978
11 -19.7787 4.51968 9.44327
1 -20.6683 4.54448 9.19612
12 -21.6078 4.85096 9.10949
16 -22.2325 4.7638 8.31842
8 -22.561 4.37574 7.47999
13 -23.0778 5.11724 7.62122
1 -23.4998 5.64682 6.98615
4 -23.5353 5.56812 5.96714
1 -24.0106 4.88035 5.58458
8 -23.2871 4.21619 5.70734
5 -23.6784 4.15015 4.81353
1 -23.664 5.17599 4.5153
1 -23.0523 5.92994 4.25827
1 -22.8598 5.2195 3.62703
5 -22.607 4.31516 3.72802
1 -21.8772 4.74194 4.18371
4 -22.2241 5.3926 4.82656
8 -22.2241 4.77937 5.55838
1 -21.3172 4.57352 5.12145
12 -20.6035 3.936 5.56896
8 -21.3264 3.75804 6.16409
12 -20.5086 4.0425 6.65194
10 -21.0138 4.80704 6.2626
8 -21.7136 4.71599 6.84849
4 -21.9644 5.53676 6.4398
16 -21.1153 5.72755 6.84014
1 -20.1262 5.7171 6.86236
5 -19.5504 5.81449 7.53649
12 -19.3202 5.36868 8.37408
11 -19.4184 4.40754 8.10596
12 -19.665 3.834 7.27336
1 -20.3572 4.38072 7.69391
4 -20.4116 3.58129 8.2212
1 -19.9159 2.80035 8.03822
7 -19.1161 2.38373 7.69477
10 -18.7176 2.08099 6.91838
1 -18.788 3.05408 6.89692
12 -18.6449 3.86225 6.38808
1 -18.0161 4.53136 6.46458
15 -18.5949 5.26815 6.57752
12 -19.2781 5.50647 5.92118
1 -19.7031 5.73879 5.07357
4 -20.6409 5.36804 5.03047
1 -20.0663 5.07267 4.34912
15 -19.1537 4.89981 4.774
12 -19.5664 4.14971 5.27467
5 -19.2138 3.22813 5.02233
10 -18.8675 2.48537 5.57232
1 -18.9252 2.04183 4.61483
10 -18.0145 2.09499 4.99909
1 -17.578 2.97799 4.85861
4 -18.1012 2.91972 4.08388
11 -19.0396 2.91139 3.99008
13 -19.0306 2.40416 3.20885
4 -19.8653 2.74635 3.21581
7 -20.8308 2.32987 3.22749
11 -20.9165 3.1079 3.8062
1 -20.3636 2.86579 4.62409
12 -19.943 2.51579 5.44899
10 -19.8806 1.6409 5.12757
13 -19.7906 1.46108 4.15489
7 -19.906 0.600379 3.67366
7 -19.4189 -0.299455 3.55091
3 -19.3626 -1.24753 3.5732
13 -19.3021 -0.903191 2.6656
11 -18.5454 -1.41548 2.90769
6 -18.6015 -1.47592 1.97156
11 -18.9436 -1.66402 1.04874
1 -19.2265 -2.081 0.210515
1 -18.8885 -2.85445 -0.305105
1 -19.561 -3.18423 0.272858
1 -20.4451 -3.43409 0.54961
13 -20.641 -2.35911 0.653954
15 -20.8532 -2.21565 1.62307
9 -20.2377 -1.57439 1.98006
7 -20.8259 -0.879691 2.3122
3 -20.9261 -1.73484 2.71952
12 -21.7387 -1.199 2.75567
7 -21.3328 -0.616182 3.44174
3 -21.2595 -1.55208 3.66765
7 -20.3477 -1.21359 3.41034
3 -20.1536 -1.71245 4.21346
2 -20.8018 -1.46792 4.99626
1 -21.3172 -0.651145 4.87569
3 -21.6884 0.129667 4.35999
7 -21.2588 0.420207 3.58016
7 -20.896 0.891583 2.85214
13 -20.0196 0.836307 2.42001
9 -19.2941 0.97157 1.78871
5 -18.4891 1.52975 1.52193
14 -18.2679 1.52828 0.569919
1 -17.4299 1.73276 0.870928
9 -16.6983 1.85921 1.55233
8 -17.0867 2.69795 1.77676
15 -16.5283 3.04638 2.50148
15 -16.723 3.9257 2.17443
6 -16.87 4.49683 2.92707
8 -15.907 4.21397 3.09267
13 -15.6319 3.26621 3.03045
9 -15.753 2.41313 3.45872
1 -14.755 2.74369 3.63097
11 -14.0226 3.24318 3.94834
8 -14.5258 3.60624 4.73516
1 -15.0434 2.99297 5.21181
2 -15.6411 2.34189 5.66002
1 -16.4867 2.56524 5.24169
10 -17.1409 1.92902 5.59091
10 -16.571 1.11185 5.54806
2 -15.8305 1.32096 6.20938
7 -15.6358 1.11445 5.24938
1 -14.8262 1.62721 4.90665
1 -14.131 1.5152 4.22358
3 -13.5849 1.19262 3.51434
8 -14.2605 0.647308 3.09582
9 -14.7656 0.0436799 2.5511
1 -14.3372 -0.162367 1.68916
3 -14.5729 -0.924599 1.13374
1 -13.8926 -1.13214 0.503946
8 -13.8158 -0.671212 -0.38156
1 -14.4228 -1.20198 -0.971831
6 -14.254 -0.679071 -1.72036
15 -14.19 -0.45272 -2.63353
9 -14.5623 -0.576821 -3.46337
4 -13.7875 -1.13751 -3.58167
1 -13.6663 -2.05486 -3.80794
4 -14.4886 -2.31077 -4.32011
16 -14.5127 -2.01515 -5.28749
3 -14.6386 -1.14857 -5.74429
7 -15.4139 -0.776629 -5.29821
5 -16.3685 -0.409816 -5.34421
1 -16.1983 -0.301264 -6.29079
1 -17.0388 0.0070592 -6.63504
1 -16.9345 0.770933 -7.18922
5 -17.8371 0.853979 -7.69345
1 -18.8074 0.968253 -7.82327
16 -19.2702 1.69791 -8.30334
7 -18.6377 1.94489 -7.65529
16 -19.554 1.98695 -7.20263
9 -19.2089 1.84532 -6.30425
4 -19.913 2.29195 -5.87743
13 -20.745 2.50429 -6.31598
16 -20.6309 1.81745 -7.05397
16 -21.2425 2.49156 -7.5348
1 -22.1115 2.8775 -7.45946
5 -22.8844 3.43557 -7.40164
1 -23.5241 3.1695 -8.12906
12 -23.4929 4.09054 -7.92601
1 -23.19 4.83275 -8.54678
1 -22.6599 4.86354 -9.41817
5 -22.0427 4.02713 -9.29601
1 -21.8705 3.71792 -8.38343
1 -21.0613 3.2464 -8.34023
16 -21.1949 2.31657 -8.66111
14 -22.0872 2.25171 -8.97565
16 -22.0283 1.74609 -8.19303
10 -22.7602 1.2583 -8.5342
13 -23.5227 1.33368 -8.03614
3 -23.2387 2.22686 -8.14769
2 -24.07 2.2655 -7.6474
16 -24.7386 1.62456 -7.83218
1 -24.8104 1.30481 -8.72171
1 -25.3882 1.03208 -9.52431
11 -24.8378 0.282065 -9.19248
5 -24.6369 0.188992 -8.23929
13 -24.5089 0.133655 -7.28326
14 -25.3478 -0.196366 -7.62631
1 -25.8203 -1.08425 -7.52687
16 -26.4018 -1.42483 -6.87469
1 -25.9288 -1.03979 -6.13634
12 -25.586 -0.32276 -5.53949
13 -24.6048 -0.505429 -5.89539
11 -24.8256 -1.3959 -5.65934
13 -24.0105 -1.64557 -6.06627
11 -23.8963 -2.72465 -5.83016
10 -23.8789 -3.31478 -6.64165
1 -22.9703 -3.4065 -6.93145
1 -22.5486 -3.22304 -6.10577
1 -21.8007 -2.90598 -6.5845
13 -21.9128 -2.2235 -5.84129
1 -21.9928 -2.77011 -5.02764
11 -22.8677 -2.87135 -4.71324
13 -22.2103 -3.56543 -4.52558
15 -21.263 -3.40588 -4.23111
15 -21.633 -3.78824 -3.48906
15 -22.3163 -3.17472 -3.6959
1 -22.985 -3.47611 -3.03643
11 -23.6911 -3.49773 -3.66412
9 -24.1673 -4.13178 -3.05722
8 -23.6246 -4.92019 -2.9253
1 -23.2298 -4.225 -2.37303
15 -22.3949 -4.10248 -1.9602
10 -22.2916 -3.76812 -1.00365
12 -21.695 -2.94349 -0.912665
1 -22.1244 -2.45114 -1.65769
15 -22.0647 -2.12603 -2.5943
11 -22.6971 -1.56123 -3.16866
6 -22.7393 -0.575827 -2.95617
1 -23.0555 0.321178 -2.73009
10 -22.5329 1.09439 -2.4544
3 -22.6938 1.5061 -3.40371
4 -22.4966 2.43071 -3.19216
1 -23.3955 2.83197 -3.05593
11 -23.6339 3.43408 -3.81231
8 -22.8265 3.85232 -3.37804
2 -21.9443 3.69706 -3.11338
1 -21.2414 4.26179 -3.62239
17 -21.0433 4.90168 -4.35265
8 -21.6798 5.45823 -3.85711
5 -21.8558 5.76184 -2.96055
1 -22.2469 5.49533 -2.07207
14 -22.6946 4.80511 -1.49263
12 -23.4834 4.58194 -1.10597
8 -24.4146 4.8737 -1.35663
1 -25.3808 4.86527 -1.51055
15 -26.0126 4.95557 -0.859784
15 -26.259 5.95931 -0.743885
15 -25.9832 5.7502 -1.6257
4 -25.0339 6.0508 -1.75385
9 -24.0772 6.13218 -1.78805
13 -24.006 6.87547 -2.43755
1 -23.7436 7.06697 -1.51962
9 -23.6803 7.89753 -1.08833
2 -22.8818 7.67598 -0.592409
10 -22.7921 7.12679 0.192942
12 -22.2362 7.31199 0.984116
7 -21.4293 6.87409 0.58975
17 -21.0255 6.09418 0.970214
1 -21.0476 5.07378 1.18034
7 -20.2847 4.57667 1.47038
1 -19.5589 3.98769 1.68794
9 -19.4056 3.47354 0.89924
6 -19.9683 2.87827 0.279613
1 -20.664 2.07699 0.222004
10 -21.0896 1.28261 0.622515
15 -20.6239 0.978971 1.48845
7 -20.5921 0.154577 1.96031
1 -20.2714 -0.170767 1.10957
10 -21.1726 0.219606 0.830854
7 -21.7062 -0.283583 1.46191
12 -22.2681 -0.986177 1.86624
9 -22.6217 -0.680532 1.07305
10 -22.8003 -0.0259883 0.347028
1 -21.8585 0.015177 0.0653428
10 -22.0855 1.0758 -0.191002
1 -22.0857 1.89672 0.276139
1 -21.5292 2.47141 0.912865
17 -21.5659 2.62301 1.83114
7 -21.323 1.79941 2.26181
6 -22.3368 1.75567 2.1819
10 -22.9073 1.5044 1.45127
1 -23.5483 1.72034 2.16409
6 -23.4998 2.55996 1.85269
8 -23.4222 2.5443 2.80338
5 -23.0938 3.4596 3.12505
16 -22.9666 4.24915 2.65685
10 -23.3659 5.13036 2.64616
1 -22.574 5.55149 2.32156
10 -22.787 6.428 1.86355
1 -21.8165 6.13479 1.55389
10 -22.2839 5.38758 0.935263
7 -21.9886 4.81703 0.229215
1 -21.0471 4.57226 0.0570001
1 -20.444 3.9352 -0.363715
17 -20.316 3.00544 -0.883504
8 -20.9711 2.3044 -0.663523
10 -21.255 1.43635 -0.911089
5 -20.5985 0.853426 -1.24072
8 -20.2964 1.79853 -1.28459
1 -20.6635 1.53752 -2.17243
5 -20.7577 1.01114 -3.02068
3 -21.5255 0.946193 -3.63037
17 -21.838 0.0293844 -3.613
5 -21.8551 0.286537 -2.6947
10 -22.3735 0.281476 -1.81782
6 -23.1616 -0.429219 -1.82876
1 -22.8984 -0.998659 -1.12396
13 -22.4183 -1.3052 -0.391345
1 -21.441 -1.50543 -0.406948
1 -20.6415 -1.21888 -0.935769
1 -21.2809 -0.500888 -0.669263
10 -21.6177 0.306289 -1.14204
5 -21.092 -0.120815 -1.79175
5 -20.3454 -0.704558 -2.17969
1 -21.018 -1.4474 -2.24524
5 -21.2537 -1.26063 -3.18652
13 -21.7386 -1.25596 -4.10929
11 -22.616 -1.64684 -4.2151
1 -22.1903 -1.2021 -4.9699
13 -22.6015 -0.418912 -5.36498
1 -22.3736 0.0993864 -4.61523
1 -21.7317 0.490007 -5.28912
4 -21.0306 1.01508 -4.93588
1 -21.2499 1.97414 -5.02316
4 -21.3155 2.29434 -4.12929
4 -20.8878 2.10611 -3.28242
2 -21.5969 2.25853 -2.61186
10 -21.651 2.0976 -1.67259
5 -21.8836 2.96169 -1.24161
9 -22.1203 3.46858 -0.46737
12 -22.7996 3.82109 0.0352413
1 -22.3106 3.28602 0.65206
14 -21.6852 3.9875 0.752589
1 -21.2077 4.14272 1.64499
13 -21.4969 4.74904 2.35815
1 -21.318 5.52568 2.92095
1 -21.1253 6.04468 3.71377
9 -20.8831 6.73748 4.37423
4 -21.0533 6.93532 5.29391
1 -20.2564 6.44377 5.65873
13 -20.1183 6.80722 6.55183
1 -21.0804 7.15229 6.69191
4 -21.9079 6.74762 6.25356
15 -22.5439 7.23322 5.71205
4 -21.9837 6.87847 5.02677
2 -22.3976 7.04433 4.16133
1 -22.4671 7.60041 3.35257
14 -23.0155 7.62313 2.5053
10 -23.8899 7.27379 2.19764
2 -24.5741 7.89171 2.49834
1 -25.1608 8.12764 1.67587
4 -25.6591 8.79156 1.23754
16 -26.0819 7.85754 1.05772
1 -25.6789 7.43281 0.274267
15 -25.5079 6.56022 -0.181551
4 -24.5744 6.35209 -0.298437
11 -23.8527 5.7274 -0.478447
15 -24.557 5.31261 0.0668735
10 -23.6455 5.22223 0.431007
1 -23.509 4.45748 0.953759
1 -24.3074 4.39735 1.32346
11 -24.1278 3.74354 1.97288
5 -24.3021 4.46819 2.61714
10 -24.2986 5.29189 1.96624
16 -25.1278 5.65031 1.65537
15 -25.0402 5.97018 0.698688
1 -24.8326 6.64368 1.34062
10 -23.9271 6.31347 1.4338
10 -24.1398 6.70294 0.607694
9 -24.1409 7.4795 -0.0709409
16 -24.772 7.6376 -0.822514
1 -25.5683 7.82497 -1.31363
15 -26.5097 7.46475 -1.36087
11 -26.8116 8.05555 -2.01183
16 -26.3608 8.61187 -2.76775
12 -26.6136 9.10075 -3.58115
1 -27.4158 8.7054 -3.18498
2 -28.007 8.09666 -3.62383
10 -28.4831 7.29437 -3.76985
3 -29.4012 7.62741 -3.48234
5 -29.5821 7.85594 -4.39543
1 -30.3976 8.03283 -4.93498
2 -30.2902 7.18709 -5.39927
1 -29.6623 6.45106 -5.54784
6 -29.9065 6.10964 -4.60974
16 -30.5901 5.90707 -3.98573
3 -30.9167 5.99863 -3.08034
1 -30.2061 6.62831 -3.48151
3 -29.8811 5.95664 -2.81355
1 -29.2874 6.67723 -2.92033
5 -29.1297 7.17347 -2.10927
10 -28.1668 6.94107 -2.05643
15 -27.9131 6.18458 -1.51026
10 -28.7935 6.39248 -1.30938
3 -29.7532 6.56726 -1.36203
1 -30.2468 7.45468 -1.23432
1 -31.1007 7.52812 -1.70893
10 -31.4555 8.40152 -1.89765
5 -31.8886 8.56701 -0.97992
1 -32.051 7.59637 -0.92936
1 -31.3799 7.13526 -0.392456
17 -31.0912 6.24297 -0.832421
3 -30.4457 5.70767 -1.1739
1 -31.2504 5.26984 -1.38793
10 -31.0102 4.37361 -0.963845
5 -30.7961 3.76128 -1.60455
3 -30.7301 4.24833 -2.45753
5 -30.3071 3.3686 -2.64563
6 -29.3492 3.68939 -2.73302
3 -29.6937 4.59228 -2.49217
5 -29.8506 4.39583 -1.58558
1 -29.6082 4.87824 -0.834429
1 -30.2213 4.54819 -0.211324
10 -31.159 4.67421 0.0755648
1 -31.708 5.37479 0.497371
10 -32.5275 4.73024 0.320654
17 -33.3533 5.10273 0.172702
11 -34.2397 5.07277 0.504047
8 -35.2092 4.84626 0.379452
13 -35.2844 4.04532 -0.210189
1 -35.3924 3.23697 -0.694988
17 -35.1589 2.55842 -1.35576
8 -34.332 2.18292 -1.73312
1 -34.6404 1.46066 -1.23816
3 -34.5801 0.59546 -1.59714
1 -34.3287 -0.0432611 -2.29954
1 -34.0983 -0.518092 -3.178
13 -33.3694 -1.1115 -3.49227
13 -32.4482 -0.949006 -3.81601
8 -32.7295 -0.366039 -3.07138
1 -32.3093 0.393351 -2.72487
13 -32.7958 0.739422 -3.52508
1 -33.6151 1.29696 -3.80104
17 -33.0776 1.92527 -4.31175
1 -32.2714 1.89608 -3.817
13 -31.8506 1.04227 -3.61245
1 -31.5637 1.80198 -3.05738
5 -31.9171 2.60357 -2.64329
10 -32.2273 2.88587 -1.86541
10 -33.1832 2.7982 -1.78981
17 -33.7141 2.77736 -2.68811
1 -34.6559 2.52222 -2.87364
1 -35.5273 2.55135 -3.30969
1 -36.2852 1.99841 -2.98639
17 -36.9351 2.67138 -3.11616
1 37.266 2.54067 -3.56041
4 -37.1642 3.0271 -4.2669
14 -36.4503 3.3737 -4.839
5 -35.7721 3.04741 -5.41359
9 -35.2755 3.75755 -5.93161
1 -34.5415 3.26135 -6.2311
15 -34.5711 2.50352 -5.65299
10 -34.2347 1.51666 -5.94434
5 -33.6906 0.854618 -5.39021
13 -33.0489 0.088251 -5.11468
13 -32.3438 -0.28632 -4.63873
13 -31.4531 0.19742 -4.59612
1 -31.5965 0.999488 -5.23282
9 -31.2678 1.31805 -6.04478
1 -31.139 1.14561 -7.06818
6 -31.1479 0.184601 -6.81368
9 -30.9324 -0.449607 -7.4638
4 -31.9725 -0.37622 -7.58262
1 -32.0436 0.475689 -8.05178
1 -31.8731 0.930355 -8.91714
1 -31.469 1.30207 -8.13396
10 -30.64 1.9621 -8.16245
9 -30.1 1.28759 -7.80098
1 -29.2398 1.27713 -8.24697
6 -28.9145 0.386996 -8.36841
9 -29.0683 -0.483984 -7.99592
5 -28.2256 -0.313906 -7.45154
1 -28.4795 -0.420127 -6.50062
10 -28.969 -0.228532 -5.74301
1 -28.7714 0.611378 -6.03259
1 -28.9063 1.21452 -6.83977
9 -29.2901 0.34398 -6.99508
9 -30.1489 0.397739 -6.6396
10 -30.3883 0.578455 -5.77138
5 -30.0247 1.45242 -5.51504
1 -30.2449 2.39911 -5.14326
1 -30.9759 1.93461 -4.72251
6 -31.0971 2.84163 -4.6908
1 -30.5582 3.6087 -4.3996
9 -30.8215 4.5126 -4.27216
1 -31.1897 4.23796 -3.44465
3 -31.4411 5.01109 -2.87499
6 -32.0456 4.82837 -3.53554
10 -32.4935 4.914 -2.73672
5 -32.4142 5.75393 -3.2678
6 -32.718 5.92444 -2.39311
1 -32.4847 6.85782 -2.70229
1 -31.9458 6.68452 -1.86193
3 -31.543 5.86492 -2.21349
10 -32.243 5.7339 -1.49636
1 -33.1601 6.23906 -1.35098
1 -32.8533 5.63189 -0.640657
10 -32.9163 4.57794 -0.809754
10 -32.2795 4.37053 -1.47669
16 -31.7179 4.25603 -2.24322
5 -31.3075 3.48875 -2.6729
10 -32.166 3.34543 -3.22882
15 -32.792 3.97994 -3.5446
17 -33.4753 4.66497 -3.5362
10 -33.5583 4.43656 -2.54036
1 -34.2358 3.6894 -2.46425
15 -34.8893 3.87299 -1.81518
1 -34.2004 3.37017 -1.48053
10 -33.5203 4.07796 -1.46505
1 -34.3266 4.25209 -0.953838
3 -33.6579 3.97929 -0.3158
10 -32.8218 3.64244 0.141874
17 -33.3661 4.02989 0.800875
10 -32.6099 4.05535 1.40891
1 -32.7457 4.86899 1.89619
4 -32.6498 5.20275 2.78716
1 -31.6888 5.1648 3.1335
4 -31.4144 4.58998 3.83284
10 -32.1619 3.93525 3.59786
4 -31.3305 3.4317 3.4537
10 -31.8269 3.03096 2.7864
1 -31.0412 2.43849 2.84538
1 -30.4035 1.84203 2.53987
17 -30.0235 2.58921 3.01272
4 -29.8496 2.98265 2.12292
1 -30.1161 2.49197 1.3328
1 -30.7684 2.25353 0.672819
10 -31.2905 2.97523 0.933146
10 -31.6168 3.54657 1.62708
4 -30.7779 3.78736 2.03178
10 -31.4376 4.39643 2.1927
4 -30.5406 4.83239 2.08716
17 -30.8095 5.38734 1.45852
1 -30.3463 4.75048 0.859869
10 -30.8234 3.88476 1.02206
4 -29.8579 3.52639 1.20571
1 -29.6652 3.66035 0.291521
1 -28.8284 3.59039 -0.148772
1 -28.7395 3.41504 -1.14354
5 -28.9512 2.46339 -1.4061
2 -28.3897 2.38021 -2.1848
17 -28.6494 1.47829 -2.27961
5 -28.0116 0.988124 -2.82294
1 -28.4497 1.50854 -3.5554
5 -28.456 0.984008 -4.29565
10 -28.9405 0.215153 -4.70519
1 -28.763 0.192572 -3.73861
17 -29.5126 -0.223533 -3.1582
10 -29.7688 -0.407731 -4.04499
13 -30.6498 -0.166079 -3.6426
1 -30.9473 0.550784 -3.15828
17 -29.9711 0.673004 -3.0818
1 -29.9508 1.13498 -3.96632
5 -30.1118 2.14328 -4.10113
1 -29.8026 2.762 -3.30554
5 -29.9757 2.43897 -2.42385
17 -29.7199 1.54229 -2.27074
5 -30.6409 1.7089 -2.18958
1 -31.2601 1.01355 -2.01129
1 -31.7849 1.81715 -1.8856
5 -31.1104 1.69421 -1.18958
13 -31.6558 2.19725 -0.576008
10 -32.0939 2.98003 -0.133781
10 -31.6308 3.12341 -0.970642
5 -30.7458 2.88125 -0.863812
5 -29.8795 2.92882 -0.42938
1 -29.0953 2.36801 -0.154147
1 -29.2135 1.63608 -0.770318
5 -30.0225 1.13635 -0.971813
17 -30.1007 0.368605 -1.58359
17 -30.9827 -0.0869492 -1.49005
3 -31.6746 -0.314513 -0.899108
1 -32.6084 -0.574273 -0.792938
1 -33.606 -0.591897 -0.903011
3 -34.4802 -0.256322 -0.592593
3 -34.7884 -1.17366 -0.714434
1 -34.4776 -1.69553 -1.41282
5 -35.3369 -2.10533 -1.18684
1 -35.6201 -2.93882 -1.58901
5 -36.3057 -3.38056 -1.12061
1 -37.1569 -3.04277 -1.06036
5 -36.7766 -2.4123 -0.465015
1 -37.2024 -1.58495 -0.286575
1 -36.9968 -1.22872 0.575806
3 -36.1954 -0.68398 0.545989
17 -35.8688 -0.424185 1.42394
1 -34.9807 -0.0180866 1.19909
16 -35.3383 0.696327 0.667914
3 -35.4568 0.302271 -0.202747
1 -35.7629 0.822546 -0.938643
3 -36.4287 0.110263 -0.979034
14 -37.0003 -0.589193 -0.52645
1 -36.8663 -1.20341 -1.24352
3 -36.0523 -0.943125 -1.6093
1 -35.5285 -0.613207 -2.36788
1 -34.7989 -1.18586 -2.45374
1 -34.4793 -1.71346 -3.16616
11 -34.4056 -2.55473 -2.76399
1 -35.3273 -2.87089 -2.73656
3 -35.7658 -3.73427 -2.50176
1 -36.4202 -3.55609 -3.28314
17 -35.9532 -3.92995 -4.04518
1 -35.0889 -4.22601 -3.80444
6 -34.433 -3.95579 -4.45608
2 -35.0388 -3.31064 -4.84098
1 -35.3307 -4.14605 -5.16584
1 -35.9004 -3.45065 -5.47098
2 -35.653 -2.71202 -6.00226
1 -36.0625 -1.85824 -6.09093
2 -35.7723 -1.57558 -5.24947
9 -35.0626 -1.66648 -4.6077
1 -35.0879 -1.05168 -3.84543
13 -34.177 -0.810961 -4.2532
10 -34.8251 -0.658826 -4.98098
2 -34.6181 -1.20555 -5.68507
13 -33.8189 -0.677012 -5.55561
1 -33.9231 -1.2726 -6.31614
1 -34.3107 -0.941144 -7.0999
9 -33.6611 -0.827266 -7.76115
1 -33.0189 -0.403383 -7.16779
1 -33.2707 0.53123 -7.26375
1 -32.7417 0.462597 -6.43891
13 -32.1951 0.237556 -5.56734
13 -31.6129 -0.538389 -5.2737
1 -31.6926 -0.737883 -6.26549
13 -31.873 -1.66551 -5.88408
1 -31.2914 -1.99173 -6.59039
9 -30.6359 -1.59178 -7.19442
2 -30.4059 -1.28442 -6.25338
10 -29.6047 -1.05428 -5.80077
9 -29.1467 -1.35788 -6.6289
9 -28.5454 -1.84641 -7.19123
6 -28.5164 -2.71285 -6.78318
1 -29.4736 -2.42642 -6.59988
1 -30.4081 -2.55252 -6.23676
2 -30.8825 -2.49559 -5.36894
13 -31.0404 -1.64639 -4.92815
10 -30.1794 -1.21137 -4.97268
4 -29.8853 -1.5163 -4.068
10 -28.9281 -1.4004 -3.81966
1 -28.4373 -1.15937 -3.03043
5 -28.603 -0.459544 -2.29162
17 -29.4902 -0.574445 -1.90207
3 -28.9281 -1.20237 -1.40555
1 -28.4117 -0.479313 -1.03365
17 -29.1596 0.10368 -0.985957
1 -28.6891 0.858607 -1.36885
1 -28.5096 0.508353 -0.42681
15 -28.3327 -0.474902 -0.0400522
5 -28.5438 -1.46726 0.0725389
17 -29.4572 -1.16579 -0.252717
3 -29.7658 -1.38609 0.673537
10 -29.8159 -0.418769 0.618758
17 -30.1103 0.258908 -0.0299651
4 -31.0313 0.408413 -0.45428
1 -31.1996 0.466385 0.538644
1 -31.635 1.16745 1.05773
10 -32.1097 1.97436 0.820405
10 -32.8215 2.20071 1.41086
1 -33.7357 1.89779 1.27031
5 -33.1742 1.40329 0.667714
10 -32.615 1.52252 -0.125654
5 -32.5953 1.2984 -1.01806
4 -33.1802 1.53558 -1.65497
1 -33.6096 0.969106 -0.984999
15 -33.6025 1.83926 -0.661139
10 -33.5393 2.80117 -0.608739
3 -34.3868 3.0125 -0.252076
4 -34.0841 3.27607 0.586928
10 -33.4583 2.93215 1.2413
1 -34.0209 3.66436 1.61987
10 -33.5335 3.72872 2.45049
17 -33.3089 4.16392 3.25706
1 -33.6525 3.8422 4.17414
1 -33.1827 2.9718 4.01778
10 -32.8187 3.08047 3.12717
10 -32.5205 2.17919 2.80219
1 -32.0904 1.35185 2.78647
9 -32.8984 0.83213 2.51938
1 -33.4547 1.60202 2.79663
5 -33.8189 0.878613 3.32959
6 -34.1343 -0.0491963 3.50378
9 -33.4926 -0.24172 2.79022
17 -33.7778 -1.11926 3.23866
3 -33.3847 -1.93581 2.93852
10 -33.6472 -2.31522 3.78923
1 -34.5635 -1.98447 4.01305
1 -34.8722 -1.90588 3.05055
13 -34.8053 -2.51103 2.2774
10 -34.0775 -2.88124 1.7422
9 -33.4985 -2.11578 1.75926
1 -32.8519 -2.24791 1.10175
10 -32.9149 -3.16553 1.3383
5 -32.453 -3.20392 2.15957
10 -33.2384 -3.81223 2.32315
3 -33.8713 -3.2443 2.76612
1 -34.0077 -4.10366 3.3235
6 -34.985 -4.31907 3.33557
17 -35.7811 -4.2233 2.70355
13 -36.3144 -3.70826 2.0783
13 -36.5124 -2.79988 1.81177
1 -36.3412 -2.63391 0.87479
1 -36.0641 -1.75026 0.795063
3 -35.517 -1.61154 -0.0289079
5 -34.7609 -2.15334 -0.244623
10 -34.8488 -2.94664 0.189966
5 -35.6148 -3.32827 0.600062
10 -34.7669 -3.57718 1.02269
13 -35.2103 -3.31039 1.76519
17 -35.3408 -4.27951 1.5629
10 -34.587 -4.49699 1.04644
1 -35.0784 -5.1296 0.348595
1 -35.8483 -4.61386 0.68092
5 -36.769 -4.67859 0.561203
1 -36.7237 -4.76034 -0.411585
5 -35.9904 -4.10536 -0.56415
1 -36.208 -4.5492 -1.471
5 -36.9977 -4.12806 -1.09439
1 37.2486 -4.71442 -1.25557
1 37.0948 -4.12859 -0.449355
5 37.2031 -3.52287 0.350421
1 37.0939 -3.71528 1.2489
5 -36.9934 -3.48131 1.20938
17 -37.1724 -4.24777 1.73358
5 37.2557 -3.63854 2.25465
1 37.0024 -3.39227 3.10757
17 -37.159 -3.64589 3.47706
5 -37.3881 -2.85733 4.00759
1 -36.7715 -2.1275 3.8718
8 -36.1846 -1.48265 3.35557
5 -35.7299 -0.949765 4.06277
17 -35.4034 -0.735793 3.09279
8 -34.5312 -0.678535 2.54491
9 -33.7814 -0.785577 1.95372
9 -33.6412 -0.241559 1.12466
1 -32.7147 -0.310279 0.585135
1 -32.3135 -1.15253 0.306239
9 -32.5603 -1.10027 1.24994
1 -31.6874 -0.845881 1.5688
4 -31.4418 -1.49231 2.26729
5 -30.4924 -1.83611 2.31384
1 -29.6748 -2.19447 2.73295
1 -29.182 -2.59113 1.98801
1 -28.4782 -3.30067 2.13232
6 -28.8451 -3.33035 1.24764
1 -29.343 -4.0249 1.82693
3 -29.5368 -4.97139 2.21916
1 -29.8221 -4.29504 2.87363
1 -30.7141 -4.38406 2.49551
3 -30.9976 -5.21422 2.2804
1 -31.7972 -5.72889 2.44373
10 -32.1229 -5.23794 1.66183
11 -31.3942 -5.64611 1.11581
3 -30.8651 -6.27354 0.655067
1 -30.9323 -6.035 -0.264984
10 -31.5048 -5.3317 0.0446941
16 -30.7499 -4.88791 -0.360779
4 -30.0956 -4.35754 -0.733904
1 -29.4495 -4.62934 -1.5146
4 -30.2321 -4.09288 -1.65756
4 -31.1642 -4.07069 -2.06456
14 -32.0165 -4.46984 -1.80747
10 -32.3782 -3.86218 -1.10765
4 -31.9817 -3.10504 -1.55718
13 -32.1663 -2.28725 -2.06251
1 -31.7028 -2.00857 -1.19011
4 -31.0125 -2.56788 -0.812779
17 -30.5388 -1.65537 -0.893825
10 -29.8345 -2.25273 -0.599837
1 -28.9634 -2.41476 -0.197254
6 -29.0111 -3.35768 0.0249691
1 -29.075 -4.24331 0.406187
3 -29.2515 -5.00891 0.992469
1 -29.8928 -5.10236 0.250132
1 -30.0558 -4.34056 0.859374
3 -30.9713 -4.69345 1.00373
10 -31.7923 -4.39017 0.771283
4 -31.0474 -4.01895 0.20717
4 -30.7003 -3.14411 -0.0191087
1 -30.7542 -3.15415 0.980364
2 -31.5416 -3.38045 1.52875
10 -31.915 -4.11673 2.08458
1 -31.7902 -4.18754 3.0729
10 -32.7298 -3.85693 3.22709
1 -32.4934 -3.54989 4.08453
13 -33.0216 -4.2097 4.62408
5 -32.9375 -5.14615 4.29708
1 -32.3776 -5.89049 3.98047
6 -32.8084 -6.08877 3.12916
6 -33.2566 -6.14686 2.29456
10 -33.05 -5.53547 1.59779
10 -33.6932 -4.84251 1.7311
15 -34.5052 -5.40071 1.63836
17 -35.4698 -5.46101 1.30444
15 -36.362 -5.91125 1.24883
1 -36.0112 -5.73338 0.368023
13 -35.306 -6.21146 -0.103809
6 -34.4676 -6.00623 -0.598226
14 -33.5532 -6.28793 -0.495497
10 -33.3039 -5.2383 -0.232788
10 -33.2718 -4.57152 0.499338
10 -32.9203 -3.71498 0.460031
15 -32.5834 -2.79768 0.29815
1 -33.3239 -2.16944 0.0987288
10 -33.4631 -3.00358 -0.349387
15 -32.8561 -2.51307 -1.00441
15 -32.6333 -1.63561 -0.7299
1 -33.0503 -1.31956 -1.53764
5 -32.3069 -0.889126 -2.12867
17 -31.3967 -0.60696 -2.399
13 -31.6481 -1.07159 -3.16595
15 -30.6639 -1.28312 -3.28233
17 -29.9381 -1.20107 -2.68087
14 -29.1487 -1.746 -2.43789
10 -29.0211 -2.22798 -3.20605
1 -29.1409 -3.17178 -3.11514
11 -29.6433 -3.89902 -3.60128
15 -30.2438 -3.12862 -3.64758
10 -29.627 -2.72663 -4.27944
1 -28.9171 -3.34253 -4.17984
1 -29.0791 -3.69913 -5.06165
10 -28.6649 -2.76563 -5.28845
15 -28.3409 -3.46568 -5.80394
5 -27.9181 -3.85066 -4.94238
10 -27.8208 -3.27914 -4.19273
16 -26.9473 -3.49851 -3.86071
16 -27.5625 -3.35739 -3.11366
10 -27.9976 -2.45101 -3.18593
1 -27.1207 -2.0243 -3.13844
9 -27.0144 -1.72656 -4.04648
16 -26.779 -0.932805 -4.51691
12 -27.7753 -0.615407 -4.6832
10 -28.0739 -1.50163 -4.65717
7 -27.2856 -1.83435 -5.11972
5 -27.2626 -2.81811 -5.10856
1 -26.3395 -2.95569 -5.46816
16 -26.0819 -3.35466 -4.62139
11 -25.0911 -3.29646 -4.64087
16 -25.2886 -4.27079 -4.6907
1 -26.0223 -4.82804 -4.98292
7 -26.9056 -4.4465 -4.89713
10 -27.5191 -4.55109 -4.19017
16 -27.0218 -4.39398 -3.40083