2640
Atoms. Timestep: 58000000
1 5.490259 3.042349 2.476745 
1 5.772659 3.169465 3.377435 
1 5.889959 3.961288 2.836705 
10 6.599859 4.570086 2.778985 
10 6.807859 3.963813 2.081265 
13 5.972559 4.217014 1.740345 
7 5.062359 4.406486 1.507085 
6 5.044359 5.093578 2.346765 
2 4.388859 5.373618 1.690025 
7 4.483959 6.021618 0.922965 
5 3.615359 6.497718 1.100045 
8 3.546059 6.398398 2.058575 
15 4.536559 6.485048 2.332065 
8 3.889159 6.728378 3.067895 
1 4.103659 5.800058 3.304125 
1 4.820659 6.442828 3.366615 
15 5.748359 6.488158 3.703675 
10 5.488459 5.579708 3.829245 
1 4.694259 5.409158 4.258125 
1 4.461759 4.779038 5.009785 
1 5.160959 5.358538 5.317885 
7 4.935659 5.901898 6.104745 
4 4.137659 6.431248 6.338965 
2 4.085959 6.611448 5.432725 
8 3.481259 7.292298 4.909975 
7 2.878459 6.651308 5.351215 
1 2.455659 5.777218 5.255565 
15 2.629159 5.806978 4.315845 
7 2.442459 6.083678 3.462095 
8 2.073359 6.940258 3.618275 
8 2.406459 7.778478 3.421385 
1 1.580959 8.336938 3.557775 
2 0.678759 8.462488 3.235555 
1 0.681959 7.568998 2.789195 
1 1.046059 7.638468 1.932045 
5 1.485059 7.325998 1.118585 
12 1.438359 6.606658 1.685075 
1 1.793859 5.860928 2.163575 
15 1.772859 4.854278 1.976945 
11 2.661059 4.747134 2.371735 
4 2.723259 3.868227 2.081705 
16 2.628459 3.760812 1.057755 
12 2.380459 3.265274 0.218975 
1 1.857559 4.064694 0.211655 
10 1.428559 3.447080 0.759295 
9 1.731459 2.552448 1.066075 
9 0.995559 2.197448 0.643695 
16 0.336359 2.113168 -0.087965 
1 0.105059 3.030676 0.150615 
5 0.544759 3.064360 -0.723255 
9 1.361659 2.897173 -0.318195 
12 1.809059 2.406808 -0.888835 
1 1.446559 1.518728 -1.038065 
1 1.978859 0.948288 -1.646645 
11 2.550259 0.299768 -1.362385 
11 3.401259 -0.187272 -1.411325 
12 3.444259 0.638648 -0.831825 
11 3.281559 -0.040402 -0.150215 
1 4.034259 -0.470732 -0.543945 
16 4.795959 0.100988 -0.550045 
3 4.998859 0.835278 0.059545 
4 4.018659 0.977878 0.201265 
12 3.541559 1.813018 0.148365 
9 2.860259 1.968618 0.750595 
16 3.527059 1.910218 1.497665 
10 3.548359 0.957068 1.541235 
11 3.119959 0.612628 0.743915 
9 2.596059 1.096128 0.170415 
1 2.541859 1.541338 -0.748935 
12 2.649659 2.155228 -1.501945 
1 3.316259 1.518558 -1.976515 
1 3.128759 1.218908 -2.837869 
9 2.586559 0.859088 -3.563906 
1 2.603659 0.117568 -2.983739 
5 2.582659 -0.669972 -2.452469 
1 1.592159 -0.710722 -2.148845 
11 1.608959 -0.967822 -1.173615 
5 1.100359 -0.100502 -1.013135 
11 1.844559 0.024228 -0.377645 
9 1.676859 0.853208 -0.001975 
16 0.705559 0.999478 -0.087285 
13 -0.090941 0.624578 0.193805 
13 -0.160441 1.171768 0.950015 
9 0.088759 2.050328 1.185985 
1 -0.314641 2.900770 1.549505 
1 0.186759 3.692024 1.748205 
4 0.224959 3.689290 2.718665 
1 -0.130641 2.918778 3.088395 
10 -0.937441 3.041092 2.591915 
1 -1.272341 2.508798 3.376725 
11 -1.222241 2.387198 4.436925 
5 -0.796341 1.895838 5.181335 
5 -1.417141 1.606888 5.792215 
1 -2.094941 2.269448 5.915895 
2 -1.899241 3.170507 6.138825 
9 -1.359641 2.958876 5.346005 
1 -1.379941 3.873894 5.097945 
1 -0.711241 3.709041 4.396145 
1 -0.057141 3.271787 4.911195 
13 0.858659 3.463658 4.514185 
10 1.485259 4.134295 4.840655 
1 2.105659 4.643137 5.421135 
4 2.778759 4.749083 6.113385 
1 3.760359 4.766401 6.352115 
17 3.801659 4.014645 6.918845 
14 4.190459 3.691514 6.163455 
1 5.065659 3.443159 5.932345 
16 5.216759 2.603218 5.471345 
13 6.058059 2.948223 5.139475 
13 6.393159 2.253458 4.573575 
10 6.882359 2.951513 4.117875 
1 6.828859 2.319708 3.300715 
3 6.906359 1.699818 2.453245 
3 7.633559 2.268618 2.052315 
10 7.768259 3.152086 2.463715 
15 8.455959 2.607858 2.868685 
1 8.785159 1.813068 3.248575 
1 9.427059 1.266228 2.756035 
1 10.296059 1.419808 2.244295 
1 9.870859 2.262018 1.999485 
17 9.761559 2.998358 1.402985 
10 8.898659 3.314030 1.632805 
1 8.671459 2.619248 1.033205 
3 7.765859 2.283878 0.984465 
1 8.318459 2.081508 0.156475 
1 8.003559 1.246828 -0.219055 
14 8.433259 0.779818 -0.903525 
6 8.542459 1.104958 -1.792295 
3 9.303659 1.273078 -2.328119 
1 9.238059 0.903798 -3.254428 
1 8.366759 0.974078 -2.771355 
3 8.193659 1.855188 -3.228017 
1 7.864859 1.917278 -4.122644 
1 7.100859 2.489188 -3.875770 
5 6.391059 2.631518 -4.497685 
1 6.203259 1.701428 -4.341405 
5 5.789059 1.658278 -5.219245 
17 5.805059 0.756248 -4.919255 
14 4.860759 0.989898 -4.873485 
15 5.089759 0.451078 -5.619005 
15 4.647459 -0.339442 -5.865885 
3 4.499559 -1.186492 -5.425055 
1 4.954259 -1.836602 -5.989385 
6 5.596859 -2.243902 -5.336775 
1 6.340359 -2.070532 -5.857645 
1 6.165959 -1.179952 -6.012595 
15 6.253359 -0.214912 -6.224435 
1 6.440759 0.680288 -5.986355 
5 6.515059 1.591438 -6.120495 
15 5.736859 1.188568 -6.490585 
5 6.000759 1.839758 -7.130745 
15 5.357459 1.155298 -7.360655 
7 6.243659 1.170818 -7.875845 
17 6.804259 1.845888 -8.362805 
5 6.839859 2.534658 -7.707275 
6 7.694459 2.403088 -8.272695 
1 7.387259 3.309493 -7.987395 
1 7.780559 3.747835 -7.170555 
5 7.636059 2.772528 -7.028035 
1 8.482559 2.768618 -7.498605 
16 9.267859 2.587138 -7.014425 
1 9.282859 3.506738 -7.393345 
17 9.276659 4.022652 -6.591185 
7 8.998159 4.056485 -5.675425 
9 8.032559 3.916406 -5.972605 
5 7.198159 3.370493 -6.060575 
1 8.029359 2.913069 -6.076095 
5 7.438859 2.176028 -6.074925 
1 7.755259 1.251998 -6.241015 
1 7.900759 0.906568 -5.391925 
1 8.815259 0.615658 -5.611215 
1 9.366859 1.334568 -5.042225 
15 8.832259 2.034268 -5.269145 
15 8.305759 2.736968 -4.967655 
5 7.379759 2.809521 -4.842965 
6 7.984459 3.108172 -4.090465 
1 8.692559 3.509639 -3.505986 
16 9.000559 3.639403 -2.574881 
9 9.505259 3.819138 -1.772315 
9 10.324059 4.210327 -1.638585 
13 10.395159 3.865860 -2.524059 
4 10.910559 4.558477 -2.945912 
11 10.572559 5.373938 -3.355843 
1 10.317259 5.610568 -2.438059 
9 10.243559 5.331478 -1.505525 
1 10.380159 6.267778 -1.488875 
16 11.293159 6.016088 -1.317175 
1 10.780959 5.630598 -0.644935 
9 10.409559 4.722538 -0.510675 
1 10.579359 5.161128 0.358595 
10 9.665359 5.105578 0.800315 
9 9.531459 4.594719 -0.021775 
10 8.726159 4.768946 0.361675 
9 8.511059 5.075738 -0.534295 
13 7.572459 4.691303 -0.607315 
1 7.722959 4.192719 -1.451535 
9 8.559559 4.387415 -1.794935 
1 8.059859 4.262016 -2.633516 
14 7.491859 3.482379 -2.503292 
1 7.935659 3.040781 -1.824825 
11 8.449159 2.476748 -1.289515 
9 9.279259 2.957067 -1.080515 
1 8.585359 2.864327 -0.431005 
9 9.223159 3.388783 0.067935 
10 8.530959 3.576292 0.698055 
11 8.028259 3.878606 -0.049515 
13 7.267659 4.323418 0.326685 
10 7.789759 4.723766 1.107125 
10 8.180359 4.707061 1.970345 
10 7.627759 4.234048 2.625615 
10 7.893159 3.862483 3.469575 
14 7.905659 3.644035 4.460825 
11 7.905459 4.215790 5.226305 
2 8.601259 4.730511 5.646555 
1 8.307959 4.064567 6.239365 
11 7.556159 4.390652 6.845245 
9 8.472159 4.763780 7.018645 
1 9.214359 4.131455 6.829145 
7 9.660859 3.375799 6.493295 
1 10.275359 2.688708 6.112335 
11 10.462059 2.965036 5.158425 
1 9.485159 3.006078 5.059575 
2 9.355559 3.885488 4.683475 
13 9.174259 3.141108 4.059465 
10 9.227859 4.023214 3.489555 
2 9.429159 4.928738 3.727855 
2 10.066059 5.494148 4.278765 
1 10.979459 5.108178 4.080935 
1 11.076759 4.659762 4.990565 
16 11.019159 5.129028 5.791815 
10 11.589559 5.823858 5.978805 
1 11.495359 6.545408 5.374725 
16 10.801759 6.855368 4.710235 
2 10.082559 6.581558 4.167365 
1 9.085059 6.697388 4.221725 
2 9.008159 5.724208 4.220525 
10 8.078559 5.590738 3.769105 
1 7.628759 5.341808 4.625155 
1 7.812959 6.231098 4.951595 
2 8.519859 5.615788 5.149305 
4 8.493159 6.046348 6.032255 
1 8.701159 7.028178 5.916025 
13 7.762059 7.186228 5.977035 
10 7.998159 8.053368 5.619225 
8 7.030359 8.267178 6.074425 
11 6.066159 8.299938 6.207915 
1 5.176559 8.324738 5.960765 
12 4.237059 8.631218 5.874135 
16 3.612359 8.544058 5.083065 
8 3.283859 8.155998 4.244635 
13 2.767059 8.897498 4.385865 
1 2.345059 9.427078 3.750795 
4 2.309559 9.348378 2.731785 
1 1.834259 8.660608 2.349225 
8 2.557759 7.996448 2.471985 
5 2.166459 7.930408 1.578175 
1 2.180859 8.956248 1.279945 
1 2.792559 9.710198 1.022915 
1 2.985059 8.999758 0.391675 
5 3.237859 8.095418 0.492665 
1 3.967659 8.522198 0.948355 
4 3.620759 9.172858 1.591205 
8 3.620759 8.559628 2.323025 
1 4.527659 8.353778 1.886095 
12 5.241359 7.716258 2.333605 
8 4.518459 7.538298 2.928735 
12 5.336259 7.822758 3.416585 
10 4.831059 8.587298 3.027245 
8 4.131259 8.496248 3.613135 
4 3.880459 9.317018 3.204445 
16 4.729559 9.507808 3.604785 
1 5.718659 9.497358 3.627005 
5 6.294459 9.594748 4.301135 
12 6.524659 9.148938 5.138725 
11 6.426459 8.187798 4.870605 
12 6.179859 7.614258 4.038005 
1 5.487659 8.160978 4.458555 
4 5.433259 7.361548 4.985845 
1 5.928959 6.580608 4.802865 
7 6.728759 6.163988 4.459415 
10 7.127259 5.861248 3.683025 
1 7.056859 6.834338 3.661565 
12 7.199959 7.642508 3.152725 
1 7.828759 8.311618 3.229225 
15 7.249959 9.048408 3.342165 
12 6.566759 9.286728 2.685825 
1 6.141759 9.519048 1.838215 
4 5.203959 9.148298 1.795115 
1 5.778559 8.852928 1.113765 
15 6.691159 8.680068 1.538645 
12 6.278459 7.929968 2.039315 
5 6.631059 7.008388 1.786975 
10 6.977359 6.265628 2.336965 
1 6.919659 5.822088 1.379475 
10 7.830359 5.875248 1.763735 
1 8.266859 6.758248 1.623255 
4 7.743659 6.699978 0.848525 
11 6.805259 6.691648 0.754725 
13 6.814259 6.184418 -0.026505 
4 5.979559 6.526608 -0.019545 
7 5.014059 6.110128 -0.007865 
11 4.928359 6.888158 0.570845 
1 5.481259 6.646048 1.388735 
12 5.901859 6.296048 2.213635 
10 5.964259 5.421158 1.892215 
13 6.054259 5.241338 0.919535 
7 5.938859 4.380637 0.438305 
7 6.425959 3.480803 0.315555 
3 6.482259 2.532728 0.337845 
13 6.542759 2.877067 -0.569755 
11 7.299459 2.364778 -0.327665 
6 7.243359 2.304338 -1.263795 
11 6.901259 2.116238 -2.186615 
1 6.618359 1.699258 -3.024840 
1 6.956359 0.925808 -3.540460 
1 6.283859 0.596028 -2.962497 
1 5.399759 0.346168 -2.685745 
13 5.203859 1.421148 -2.581401 
15 4.991659 1.564608 -1.612285 
9 5.607159 2.205868 -1.255295 
7 5.018959 2.900567 -0.923155 
3 4.918759 2.045418 -0.515835 
12 4.106159 2.581258 -0.479685 
7 4.512059 3.164076 0.206385 
3 4.585359 2.228178 0.432295 
7 5.497159 2.566668 0.174985 
3 5.691259 2.067808 0.978105 
2 5.043059 2.312338 1.760905 
1 4.527659 3.129113 1.640335 
3 4.156459 3.909925 1.124635 
7 4.586059 4.200465 0.344805 
7 4.948859 4.671841 -0.383215 
13 5.825259 4.616565 -0.815345 
9 6.550759 4.751828 -1.446645 
5 7.355759 5.310008 -1.713425 
14 7.576959 5.308538 -2.665436 
1 8.414959 5.513018 -2.364427 
9 9.146559 5.639468 -1.683025 
8 8.758159 6.478208 -1.458595 
15 9.316559 6.826638 -0.733875 
15 9.121859 7.705958 -1.060925 
6 8.974859 8.277088 -0.308285 
8 9.937859 7.994228 -0.142685 
13 10.212959 7.046468 -0.204905 
9 10.091859 6.193388 0.223365 
1 11.089859 6.523948 0.395615 
11 11.822259 7.023438 0.712985 
8 11.319059 7.386498 1.499805 
1 10.801459 6.773228 1.976455 
2 10.203759 6.122148 2.424665 
1 9.358159 6.345498 2.006335 
10 8.703959 5.709278 2.355555 
10 9.273859 4.892108 2.312705 
2 10.014359 5.101218 2.974025 
7 10.209059 4.894708 2.014025 
1 11.018659 5.407468 1.671295 
1 11.713859 5.295458 0.988225 
3 12.259959 4.972878 0.278985 
8 11.584359 4.427566 -0.139535 
9 11.079259 3.823937 -0.684255 
1 11.507659 3.617891 -1.546195 
3 11.271959 2.855659 -2.101615 
1 11.952259 2.648118 -2.731409 
8 12.029059 3.109046 -3.616915 
1 11.422059 2.578278 -4.207186 
6 11.590859 3.101187 -4.955715 
15 11.654859 3.327538 -5.868885 
9 11.282559 3.203437 -6.698725 
4 12.057359 2.642748 -6.817025 
1 12.178559 1.725398 -7.043295 
4 11.356259 1.469488 -7.555465 
16 11.332159 1.765108 -8.522845 
3 11.206259 2.631688 -8.979645 
7 10.430959 3.003629 -8.533565 
5 9.476359 3.370442 -8.579565 
1 9.646559 3.478994 -9.526145 
1 8.806059 3.787317 -9.870395 
1 8.910359 4.551191 -10.424575 
5 8.007759 4.634237 -10.928805 
1 7.037459 4.748511 -11.058625 
16 6.574659 5.478168 -11.538695 
7 7.207159 5.725148 -10.890645 
16 6.290859 5.767208 -10.437985 
9 6.635959 5.625578 -9.539605 
4 5.931859 6.072208 -9.112785 
13 5.099859 6.284548 -9.551335 
16 5.213959 5.597708 -10.289325 
16 4.602359 6.271818 -10.770155 
1 3.733359 6.657758 -10.694815 
5 2.960459 7.215828 -10.636995 
1 2.320759 6.949758 -11.364415 
12 2.351959 7.870798 -11.161365 
1 2.654859 8.613008 -11.782135 
1 3.184959 8.643798 -12.653525 
5 3.802159 7.807388 -12.531365 
1 3.974359 7.498178 -11.618785 
1 4.783559 7.026658 -11.575585 
16 4.649959 6.096828 -11.896465 
14 3.757659 6.031968 -12.211005 
16 3.816559 5.526348 -11.428385 
10 3.084659 5.038558 -11.769555 
13 2.322159 5.113938 -11.271495 
3 2.606159 6.007118 -11.383045 
2 1.774859 6.045758 -10.882755 
16 1.106259 5.404818 -11.067535 
1 1.034459 5.085068 -11.957065 
1 0.456659 4.812338 -12.759665 
11 1.007059 4.062323 -12.427835 
5 1.207959 3.969250 -11.474645 
13 1.335959 3.913913 -10.518615 
14 0.497059 3.583892 -10.861665 
1 0.024559 2.696008 -10.762225 
16 -0.556941 2.355428 -10.110045 
1 -0.083941 2.740468 -9.371695 
12 0.258859 3.457498 -8.774845 
13 1.240059 3.274829 -9.130745 
11 1.019259 2.384358 -8.894695 
13 1.834359 2.134688 -9.301625 
11 1.948559 1.055608 -9.065515 
10 1.965959 0.465478 -9.877005 
1 2.874559 0.373758 -10.166805 
1 3.296259 0.557218 -9.341125 
1 4.044159 0.874278 -9.819855 
13 3.932059 1.556758 -9.076645 
1 3.852059 1.010148 -8.262995 
11 2.977159 0.908908 -7.948595 
13 3.634559 0.214828 -7.760935 
15 4.581859 0.374378 -7.466465 
15 4.211859 -0.007982 -6.724415 
15 3.528559 0.605538 -6.931255 
1 2.859859 0.304148 -6.271785 
11 2.153759 0.282528 -6.899475 
9 1.677559 -0.351522 -6.292575 
8 2.220259 -1.139932 -6.160655 
1 2.615059 -0.444742 -5.608385 
15 3.449959 -0.322222 -5.195555 
10 3.553259 0.012138 -4.239005 
12 4.149859 0.836768 -4.148020 
1 3.720459 1.329118 -4.893045 
15 3.780159 1.654228 -5.829655 
11 3.147759 2.219028 -6.404015 
6 3.105559 3.204431 -6.191525 
1 2.789359 4.101436 -5.965445 
10 3.311959 4.874648 -5.689755 
3 3.151059 5.286358 -6.639065 
4 3.348259 6.210968 -6.427515 
1 2.449359 6.612228 -6.291285 
11 2.210959 7.214338 -7.047665 
8 3.018359 7.632578 -6.613395 
2 3.900559 7.477318 -6.348735 
1 4.603459 8.042048 -6.857745 
17 4.801559 8.681938 -7.588005 
8 4.165059 9.238488 -7.092465 
5 3.989059 9.542098 -6.195905 
1 3.597959 9.275588 -5.307425 
14 3.150259 8.585368 -4.727985 
12 2.361459 8.362198 -4.341325 
8 1.430259 8.653958 -4.591985 
1 0.464059 8.645528 -4.745905 
15 -0.167741 8.735828 -4.095139 
15 -0.414141 9.739568 -3.979240 
15 -0.138341 9.530458 -4.861055 
4 0.810959 9.831058 -4.989205 
9 1.767659 9.912438 -5.023405 
13 1.838859 10.655728 -5.672905 
1 2.101259 10.847228 -4.754975 
9 2.164559 11.677788 -4.323685 
2 2.963059 11.456238 -3.827764 
10 3.052759 10.907048 -3.042413 
12 3.608659 11.092248 -2.251239 
7 4.415559 10.654348 -2.645605 
17 4.819359 9.874438 -2.265141 
1 4.797259 8.854038 -2.055015 
7 5.560159 8.356928 -1.764975 
1 6.285959 7.767948 -1.547415 
9 6.439259 7.253798 -2.336115 
6 5.876559 6.658528 -2.955742 
1 5.180859 5.857248 -3.013351 
10 4.755259 5.062868 -2.612840 
15 5.220959 4.759229 -1.746905 
7 5.252759 3.934835 -1.275045 
1 5.573459 3.609491 -2.125785 
10 4.672259 3.999864 -2.404501 
7 4.138659 3.496675 -1.773445 
12 3.576759 2.794081 -1.369115 
9 3.223159 3.099726 -2.162305 
10 3.044559 3.754269 -2.888327 
1 3.986359 3.795435 -3.170012 
10 3.759359 4.856058 -3.426357 
1 3.759159 5.676978 -2.959216 
1 4.315659 6.251668 -2.322490 
17 4.278959 6.403268 -1.404215 
7 4.521859 5.579668 -0.973545 
6 3.508059 5.535928 -1.053455 
10 2.937559 5.284658 -1.784085 
1 2.296559 5.500598 -1.071265 
6 2.345059 6.340218 -1.382665 
8 2.422659 6.324558 -0.431975 
5 2.751059 7.239858 -0.110305 
16 2.878259 8.029408 -0.578505 
10 2.478959 8.910618 -0.589195 
1 3.270859 9.331748 -0.913795 
10 3.057859 10.208258 -1.371805 
1 4.028359 9.915048 -1.681465 
10 3.560959 9.167838 -2.300092 
7 3.856259 8.597288 -3.006140 
1 4.797759 8.352518 -3.178355 
1 5.400859 7.715458 -3.599070 
17 5.528859 6.785698 -4.118859 
8 4.873759 6.084658 -3.898878 
10 4.589859 5.216608 -4.146444 
5 5.246359 4.633684 -4.476075 
8 5.548459 5.578788 -4.519945 
1 5.181359 5.317778 -5.407785 
5 5.087159 4.791398 -6.256035 
3 4.319359 4.726451 -6.865725 
17 4.006859 3.809642 -6.848355 
5 3.989759 4.066795 -5.930055 
10 3.471359 4.061734 -5.053175 
6 2.683259 3.351039 -5.064115 
1 2.946459 2.781599 -4.359315 
13 3.426559 2.475058 -3.626700 
1 4.403859 2.274828 -3.642303 
1 5.203359 2.561378 -4.171124 
1 4.563959 3.279370 -3.904618 
10 4.227159 4.086547 -4.377395 
5 4.752859 3.659443 -5.027105 
5 5.499459 3.075700 -5.415045 
1 4.826859 2.332858 -5.480595 
5 4.591159 2.519628 -6.421875 
13 4.106259 2.524298 -7.344645 
11 3.228859 2.133418 -7.450455 
1 3.654559 2.578158 -8.205255 
13 3.243359 3.361346 -8.600335 
1 3.471259 3.879644 -7.850585 
1 4.113159 4.270265 -8.524475 
4 4.814259 4.795338 -8.171235 
1 4.594959 5.754398 -8.258515 
4 4.529359 6.074598 -7.364645 
4 4.957059 5.886368 -6.517775 
2 4.247959 6.038788 -5.847215 
10 4.193859 5.877858 -4.907945 
5 3.961259 6.741948 -4.476965 
9 3.724559 7.248838 -3.702725 
12 3.045259 7.601348 -3.200113 
1 3.534259 7.066278 -2.583295 
14 4.159659 7.767758 -2.482766 
1 4.637159 7.922978 -1.590365 
13 4.347959 8.529298 -0.877205 
1 4.526859 9.305938 -0.314405 
1 4.719559 9.824938 0.478415 
9 4.961759 10.517738 1.138875 
4 4.791559 10.715578 2.058555 
1 5.588459 10.224028 2.423375 
13 5.726559 10.587478 3.316475 
1 4.764459 10.932548 3.456555 
4 3.936959 10.527878 3.018205 
15 3.300959 11.013478 2.476695 
4 3.861159 10.658728 1.791415 
2 3.447259 10.824588 0.925975 
1 3.377759 11.380668 0.117215 
14 2.829359 11.403388 -0.730055 
10 1.954959 11.054048 -1.037715 
2 1.270759 11.671968 -0.737015 
1 0.684059 11.907898 -1.559485 
4 0.185759 12.571818 -1.997815 
16 -0.237041 11.637798 -2.177635 
1 0.165959 11.213068 -2.961088 
15 0.336959 10.340478 -3.416906 
4 1.270459 10.132348 -3.533792 
11 1.992159 9.507658 -3.713802 
15 1.287859 9.092868 -3.168481 
10 2.199359 9.002488 -2.804348 
1 2.335859 8.237738 -2.281596 
1 1.537459 8.177608 -1.911895 
11 1.717059 7.523798 -1.262475 
5 1.542759 8.248448 -0.618215 
10 1.546259 9.072148 -1.269115 
16 0.717059 9.430568 -1.579985 
15 0.804659 9.750438 -2.536667 
1 1.012259 10.423938 -1.894735 
10 1.917759 10.093728 -1.801555 
10 1.705059 10.483198 -2.627661 
9 1.703959 11.259758 -3.306296 
16 1.072859 11.417858 -4.057869 
1 0.276559 11.605228 -4.548985 
15 -0.664841 11.245008 -4.596225 
11 -0.966741 11.835808 -5.247185 
16 -0.515941 12.392128 -6.003105 
12 -0.768741 12.881008 -6.816505 
1 -1.570941 12.485658 -6.420335 
2 -2.162141 11.876918 -6.859185 
10 -2.638241 11.074628 -7.005205 
3 -3.556341 11.407668 -6.717695 
5 -3.737241 11.636198 -7.630785 
1 -4.552741 11.813088 -8.170335 
2 -4.445341 10.967348 -8.634625 
1 -3.817441 10.231318 -8.783195 
6 -4.061641 9.889898 -7.845095 
16 -4.745241 9.687328 -7.221085 
3 -5.071841 9.778888 -6.315695 
1 -4.361241 10.408568 -6.716865 
3 -4.036241 9.736898 -6.048905 
1 -3.442541 10.457488 -6.155685 
5 -3.284841 10.953728 -5.344625 
10 -2.321941 10.721328 -5.291785 
15 -2.068241 9.964838 -4.745615 
10 -2.948641 10.172738 -4.544735 
3 -3.908341 10.347518 -4.597385 
1 -4.401941 11.234938 -4.469675 
1 -5.255841 11.308378 -4.944285 
10 -5.610641 12.181778 -5.133005 
5 -6.043741 12.347268 -4.215275 
1 -6.206141 11.376628 -4.164715 
1 -5.535041 10.915518 -3.627811 
17 -5.246341 10.023228 -4.067776 
3 -4.600841 9.487928 -4.409255 
1 -5.405541 9.050098 -4.623285 
10 -5.165341 8.153868 -4.199200 
5 -4.951241 7.541538 -4.839905 
3 -4.885241 8.028588 -5.692885 
5 -4.462241 7.148858 -5.880985 
6 -3.504341 7.469648 -5.968375 
3 -3.848841 8.372538 -5.727525 
5 -4.005741 8.176088 -4.820935 
1 -3.763341 8.658498 -4.069784 
1 -4.376441 8.328448 -3.446679 
10 -5.314141 8.454468 -3.159790 
1 -5.863141 9.155048 -2.737984 
10 -6.682641 8.510498 -2.914701 
17 -7.508441 8.882988 -3.062653 
11 -8.394841 8.853028 -2.731308 
8 -9.364341 8.626518 -2.855903 
13 -9.439541 7.825578 -3.445544 
1 -9.547541 7.017228 -3.930343 
17 -9.314041 6.338678 -4.591115 
8 -8.487141 5.963178 -4.968475 
1 -8.795541 5.240918 -4.473515 
3 -8.735241 4.375718 -4.832495 
1 -8.483841 3.736996 -5.534895 
1 -8.253441 3.262166 -6.413355 
13 -7.524541 2.668758 -6.727625 
13 -6.603341 2.831252 -7.051365 
8 -6.884641 3.414219 -6.306735 
1 -6.464441 4.173609 -5.960225 
13 -6.950941 4.519680 -6.760435 
1 -7.770241 5.077218 -7.036395 
17 -7.232741 5.705528 -7.547105 
1 -6.426541 5.676338 -7.052355 
13 -6.005741 4.822528 -6.847805 
1 -5.718841 5.582238 -6.292735 
5 -6.072241 6.383828 -5.878645 
10 -6.382441 6.666128 -5.100765 
10 -7.338341 6.578458 -5.025165 
17 -7.869241 6.557618 -5.923465 
1 -8.811041 6.302478 -6.108995 
1 -9.682441 6.331608 -6.545045 
1 -10.440341 5.778668 -6.221745 
17 -11.090241 6.451638 -6.351515 
1 -11.889141 6.320928 -6.795765 
4 -11.319341 6.807358 -7.502255 
14 -10.605441 7.153958 -8.074355 
5 -9.927241 6.827668 -8.648945 
9 -9.430641 7.537808 -9.166965 
1 -8.696641 7.041608 -9.466455 
15 -8.726241 6.283778 -8.888345 
10 -8.389841 5.296918 -9.179695 
5 -7.845741 4.634876 -8.625565 
13 -7.204041 3.868509 -8.350035 
13 -6.498941 3.493938 -7.874085 
13 -5.608241 3.977678 -7.831475 
1 -5.751641 4.779746 -8.468175 
9 -5.422941 5.098308 -9.280135 
1 -5.294141 4.925868 -10.303535 
6 -5.303041 3.964859 -10.049035 
9 -5.087541 3.330651 -10.699155 
4 -6.127641 3.404038 -10.817975 
1 -6.198741 4.255947 -11.287135 
1 -6.028241 4.710613 -12.152495 
1 -5.624141 5.082328 -11.369315 
10 -4.795141 5.742358 -11.397805 
9 -4.255141 5.067848 -11.036335 
1 -3.394941 5.057388 -11.482325 
6 -3.069641 4.167254 -11.603765 
9 -3.223441 3.296274 -11.231275 
5 -2.380741 3.466352 -10.686895 
1 -2.634641 3.360131 -9.735975 
10 -3.124141 3.551726 -8.978365 
1 -2.926541 4.391636 -9.267945 
1 -3.061441 4.994778 -10.075125 
9 -3.445241 4.124238 -10.230435 
9 -4.304041 4.177997 -9.874955 
10 -4.543441 4.358713 -9.006735 
5 -4.179841 5.232678 -8.750395 
1 -4.400041 6.179368 -8.378615 
1 -5.131041 5.714868 -7.957865 
6 -5.252241 6.621888 -7.926155 
1 -4.713341 7.388958 -7.634955 
9 -4.976641 8.292858 -7.507515 
1 -5.344841 8.018218 -6.680005 
3 -5.596241 8.791348 -6.110345 
6 -6.200741 8.608628 -6.770895 
10 -6.648641 8.694258 -5.972075 
5 -6.569341 9.534188 -6.503155 
6 -6.873141 9.704698 -5.628465 
1 -6.639841 10.638078 -5.937645 
1 -6.100941 10.464778 -5.097285 
3 -5.698141 9.645178 -5.448845 
10 -6.398141 9.514158 -4.731715 
1 -7.315241 10.019318 -4.586335 
1 -7.008441 9.412148 -3.876012 
10 -7.071441 8.358198 -4.045109 
10 -6.434641 8.150788 -4.712045 
16 -5.873041 8.036288 -5.478575 
5 -5.462641 7.269008 -5.908255 
10 -6.321141 7.125688 -6.464175 
15 -6.947141 7.760198 -6.779955 
17 -7.630441 8.445228 -6.771555 
10 -7.713441 8.216818 -5.775715 
1 -8.390941 7.469658 -5.699605 
15 -9.044441 7.653248 -5.050535 
1 -8.355541 7.150428 -4.715885 
10 -7.675441 7.858218 -4.700405 
1 -8.481741 8.032348 -4.189193 
3 -7.813041 7.759548 -3.551155 
10 -6.976941 7.422698 -3.093481 
17 -7.521241 7.810148 -2.434480 
10 -6.765041 7.835608 -1.826445 
1 -6.900841 8.649248 -1.339165 
4 -6.804941 8.983008 -0.448195 
1 -5.843941 8.945058 -0.101855 
4 -5.569541 8.370238 0.597485 
10 -6.317041 7.715508 0.362505 
4 -5.485641 7.211958 0.218345 
10 -5.982041 6.811218 -0.448955 
1 -5.196341 6.218748 -0.389975 
1 -4.558641 5.622288 -0.695485 
17 -4.178641 6.369468 -0.222635 
4 -4.004741 6.762908 -1.112435 
1 -4.271241 6.272228 -1.902555 
1 -4.923541 6.033788 -2.562536 
10 -5.445641 6.755488 -2.302209 
10 -5.771941 7.326828 -1.608275 
4 -4.933041 7.567618 -1.203575 
10 -5.592741 8.176688 -1.042655 
4 -4.695741 8.612648 -1.148195 
17 -4.964641 9.167598 -1.776835 
1 -4.501441 8.530738 -2.375486 
10 -4.978541 7.665018 -2.213295 
4 -4.013041 7.306648 -2.029645 
1 -3.820341 7.440608 -2.943834 
1 -2.983541 7.370648 -3.384127 
1 -2.894641 7.195298 -4.378895 
5 -3.106341 6.243648 -4.641455 
2 -2.544841 6.160468 -5.420155 
17 -2.804541 5.258548 -5.514965 
5 -2.166741 4.768382 -6.058295 
1 -2.604841 5.288798 -6.790755 
5 -2.611141 4.764266 -7.531005 
10 -3.095641 3.995411 -7.940545 
1 -2.918141 3.972830 -6.973965 
17 -3.667741 3.556725 -6.393555 
10 -3.923941 3.372527 -7.280345 
13 -4.804941 3.614179 -6.877955 
1 -5.102441 4.331042 -6.393635 
17 -4.126241 4.453262 -6.317155 
1 -4.105941 4.915238 -7.201675 
5 -4.266941 5.923538 -7.336485 
1 -3.957741 6.542258 -6.540895 
5 -4.130841 6.219228 -5.659205 
17 -3.875041 5.322548 -5.506095 
5 -4.796041 5.489158 -5.424935 
1 -5.415241 4.793808 -5.246645 
1 -5.940041 5.597408 -5.120955 
5 -5.265541 5.474468 -4.424935 
13 -5.810941 5.977508 -3.811363 
10 -6.249041 6.760288 -3.369136 
10 -5.785941 6.903668 -4.205997 
5 -4.900941 6.661508 -4.099167 
5 -4.034641 6.709078 -3.664735 
1 -3.250441 6.148268 -3.389502 
1 -3.368641 5.416338 -4.005673 
5 -4.177641 4.916608 -4.207168 
17 -4.255841 4.148863 -4.818945 
17 -5.137841 3.693308 -4.725405 
3 -5.829741 3.465745 -4.134463 
1 -6.763541 3.205985 -4.028293 
1 -7.761141 3.188361 -4.138366 
3 -8.635341 3.523936 -3.827948 
3 -8.943541 2.606598 -3.949789 
1 -8.632741 2.084728 -4.648175 
5 -9.492041 1.674928 -4.422195 
1 -9.775241 0.841438 -4.824365 
5 -10.460841 0.399698 -4.355965 
1 -11.312041 0.737488 -4.295715 
5 -10.931741 1.367958 -3.700370 
1 -11.357541 2.195308 -3.521930 
1 -11.151941 2.551538 -2.659549 
3 -10.350541 3.096278 -2.689366 
17 -10.023941 3.356073 -1.811415 
1 -9.135841 3.762171 -2.036265 
16 -9.493441 4.476585 -2.567441 
3 -9.611941 4.082529 -3.438102 
1 -9.918041 4.602804 -4.173998 
3 -10.583841 3.890521 -4.214389 
14 -11.155441 3.191065 -3.761805 
1 -11.021441 2.576848 -4.478875 
3 -10.207441 2.837133 -4.844655 
1 -9.683641 3.167051 -5.603235 
1 -8.954041 2.594398 -5.689095 
1 -8.634441 2.066798 -6.401515 
11 -8.560741 1.225528 -5.999345 
1 -9.482441 0.909368 -5.971915 
3 -9.920941 0.045988 -5.737115 
1 -10.575341 0.224168 -6.518495 
17 -10.108341 -0.149692 -7.280535 
1 -9.244041 -0.445752 -7.039795 
6 -8.588141 -0.175532 -7.691435 
2 -9.193941 0.469618 -8.076335 
1 -9.485841 -0.365792 -8.401195 
1 -10.055541 0.329608 -8.706335 
2 -9.808141 1.068238 -9.237615 
1 -10.217641 1.922018 -9.326285 
2 -9.927441 2.204678 -8.484825 
9 -9.217741 2.113778 -7.843055 
1 -9.243041 2.728578 -7.080785 
13 -8.332141 2.969297 -7.488555 
10 -8.980241 3.121432 -8.216335 
2 -8.773241 2.574708 -8.920425 
13 -7.974041 3.103246 -8.790965 
1 -8.078241 2.507658 -9.551495 
1 -8.465841 2.839114 -10.335255 
9 -7.816241 2.952992 -10.996505 
1 -7.174041 3.376875 -10.403145 
1 -7.425841 4.311488 -10.499105 
1 -6.896841 4.242855 -9.674265 
13 -6.350241 4.017814 -8.802695 
13 -5.768041 3.241869 -8.509055 
1 -5.847741 3.042375 -9.500845 
13 -6.028141 2.114748 -9.119435 
1 -5.446541 1.788528 -9.825745 
9 -4.791041 2.188478 -10.429775 
2 -4.561041 2.495838 -9.488735 
10 -3.759841 2.725978 -9.036125 
9 -3.301841 2.422378 -9.864255 
9 -2.700541 1.933848 -10.426585 
6 -2.671541 1.067408 -10.018535 
1 -3.628741 1.353838 -9.835235 
1 -4.563241 1.227738 -9.472115 
2 -5.037641 1.284668 -8.604295 
13 -5.195541 2.133868 -8.163505 
10 -4.334541 2.568888 -8.208035 
4 -4.040441 2.263958 -7.303355 
10 -3.083241 2.379858 -7.055015 
1 -2.592441 2.620888 -6.265785 
5 -2.758141 3.320714 -5.526975 
17 -3.645341 3.205813 -5.137425 
3 -3.083241 2.577888 -4.640905 
1 -2.566841 3.300945 -4.269005 
17 -3.314741 3.883938 -4.221312 
1 -2.844241 4.638865 -4.604205 
1 -2.664741 4.288611 -3.662165 
15 -2.487841 3.305356 -3.275407 
5 -2.698941 2.312998 -3.162816 
17 -3.612341 2.614468 -3.488072 
3 -3.920941 2.394168 -2.561818 
10 -3.971041 3.361489 -2.616597 
17 -4.265441 4.039166 -3.265320 
4 -5.186441 4.188671 -3.689635 
1 -5.354741 4.246643 -2.696711 
1 -5.790141 4.947708 -2.177625 
10 -6.264841 5.754618 -2.414950 
10 -6.976641 5.980968 -1.824495 
1 -7.890841 5.678048 -1.965045 
5 -7.329341 5.183548 -2.567641 
10 -6.770141 5.302778 -3.361009 
5 -6.750441 5.078658 -4.253415 
4 -7.335341 5.315838 -4.890325 
1 -7.764741 4.749364 -4.220354 
15 -7.757641 5.619518 -3.896494 
10 -7.694441 6.581428 -3.844094 
3 -8.541941 6.792758 -3.487431 
4 -8.239241 7.056328 -2.648427 
10 -7.613441 6.712408 -1.994055 
1 -8.176041 7.444618 -1.615485 
10 -7.688641 7.508978 -0.784865 
17 -7.464041 7.944178 0.021705 
1 -7.807641 7.622458 0.938785 
1 -7.337841 6.752058 0.782425 
10 -6.973841 6.860728 -0.108185 
10 -6.675641 5.959448 -0.433165 
1 -6.245541 5.132108 -0.448885 
9 -7.053541 4.612388 -0.715975 
1 -7.609841 5.382278 -0.438725 
5 -7.974041 4.658871 0.094235 
6 -8.289441 3.731061 0.268425 
9 -7.647741 3.538538 -0.445135 
17 -7.932941 2.660998 0.003305 
3 -7.539841 1.844448 -0.296835 
10 -7.802341 1.465038 0.553875 
1 -8.718641 1.795788 0.777695 
1 -9.027341 1.874378 -0.184805 
13 -8.960441 1.269228 -0.957955 
10 -8.232641 0.899018 -1.493155 
9 -7.653641 1.664478 -1.476095 
1 -7.007041 1.532348 -2.133605 
10 -7.070041 0.614728 -1.897055 
5 -6.608141 0.576338 -1.075785 
10 -7.393541 -0.031972 -0.912205 
3 -8.026441 0.535958 -0.469235 
1 -8.162841 -0.323402 0.088145 
6 -9.140141 -0.538812 0.100215 
17 -9.936241 -0.443042 -0.531805 
13 -10.469541 0.071998 -1.157055 
13 -10.667541 0.980378 -1.423585 
1 -10.496341 1.146348 -2.360565 
1 -10.219241 2.029998 -2.440292 
3 -9.672141 2.168718 -3.264263 
5 -8.916041 1.626918 -3.479978 
10 -9.003941 0.833618 -3.045389 
5 -9.769941 0.451988 -2.635293 
10 -8.922041 0.203078 -2.212665 
13 -9.365441 0.469868 -1.470165 
17 -9.495941 -0.499252 -1.672455 
10 -8.742141 -0.716732 -2.188915 
1 -9.233541 -1.349342 -2.886760 
1 -10.003441 -0.833602 -2.554435 
5 -10.924141 -0.898332 -2.674152 
1 -10.878841 -0.980082 -3.646940 
5 -10.145541 -0.325102 -3.799505 
1 -10.363141 -0.768942 -4.706355 
5 -11.152841 -0.347802 -4.329745 
1 -11.906541 -0.934162 -4.490925 
1 -12.060341 -0.348332 -3.684710 
5 -11.952041 0.257388 -2.884934 
1 -12.061241 0.064978 -1.986455 
5 -11.148541 0.298948 -2.025975 
17 -11.327541 -0.467512 -1.501775 
5 -11.899441 0.141718 -0.980705 
1 -12.152741 0.387988 -0.127785 
17 -11.314141 0.134368 0.241705 
5 -11.543241 0.922928 0.772235 
1 -10.926641 1.652758 0.636445 
8 -10.339741 2.297608 0.120215 