2640
Atoms. Timestep: 128000000
6 16.185148 -6.880659 -1.771910 
6 15.934448 -7.268009 -0.905660 
7 15.048948 -7.186839 -0.550080 
5 14.344748 -7.594499 0.001130 
1 13.875548 -8.418469 0.307270 
12 13.939248 -8.686939 1.205640 
3 13.982748 -8.940749 2.105040 
1 13.388348 -9.574529 1.717750 
3 12.627848 -10.072949 1.516490 
4 12.711448 -10.357579 0.603470 
1 12.720448 -11.113839 -0.034520 
8 12.394848 -10.343949 -0.608630 
8 11.868548 -9.480729 -0.300380 
3 11.836048 -8.611579 0.052870 
1 11.745648 -9.114099 0.901980 
6 11.541448 -9.114149 1.848470 
11 10.590148 -9.176409 1.650630 
17 10.137248 -9.836659 1.117310 
15 9.560948 -9.655859 0.353000 
14 8.527348 -9.646699 0.557930 
15 8.172548 -10.006129 -0.332750 
13 7.342048 -9.908079 0.302950 
3 6.823248 -10.493159 0.903280 
1 7.261148 -9.660049 1.295470 
5 7.421648 -8.771989 1.695840 
10 6.941348 -9.092599 2.487140 
1 5.989348 -9.081409 2.514700 
3 4.968348 -8.911499 2.675590 
9 4.818548 -9.797999 2.216120 
1 4.253648 -10.451749 2.680000 
1 4.010448 -9.564989 3.088370 
1 3.305648 -8.946429 2.963140 
2 2.529948 -8.607829 3.397150 
10 2.094848 -8.978649 4.203450 
3 2.953948 -8.621969 4.425350 
1 2.312148 -8.004759 4.747950 
2 1.791048 -7.257669 4.317950 
1 0.997048 -7.453179 3.712250 
2 1.639048 -7.055909 3.181690 
2 2.529348 -6.872869 2.636770 
3 2.387948 -7.405259 1.845730 
1 2.636248 -8.271159 1.536910 
1 2.947248 -8.898089 0.911460 
15 3.671248 -9.161209 0.342220 
9 3.699548 -8.570619 -0.393360 
2 4.515748 -8.602769 -1.096060 
1 4.702448 -9.360649 -1.752870 
7 4.812248 -9.232079 -2.633900 
1 5.221048 -8.376259 -2.684300 
6 5.214048 -8.510399 -3.601050 
14 4.645548 -7.728709 -3.613880 
1 5.338348 -7.196869 -3.964180 
6 5.608548 -7.054049 -4.879920 
6 6.443248 -7.600319 -5.160000 
6 6.557148 -7.783589 -6.108646 
16 6.760848 -8.298369 -6.916825 
6 7.132348 -8.590669 -6.093257 
15 7.487248 -9.100909 -6.836139 
10 6.659248 -9.404369 -7.270942 
16 6.081648 -9.388989 -6.487907 
6 5.359148 -8.825629 -6.139588 
1 4.904348 -8.141759 -6.668303 
1 4.484948 -7.373699 -6.387135 
6 5.368548 -7.161449 -6.639512 
6 5.023848 -6.796809 -5.791292 
15 4.476548 -6.780269 -5.011860 
6 4.691748 -7.784899 -4.929710 
1 4.292448 -8.596079 -4.525350 
6 5.140448 -8.688409 -5.084120 
6 5.655248 -9.157679 -4.387010 
7 5.897148 -9.298609 -3.502840 
7 5.649348 -10.197519 -3.528510 
1 5.522048 -11.094069 -3.874580 
1 5.408348 -11.497779 -4.809550 
6 5.698348 -10.647519 -5.178930 
16 6.520848 -11.103549 -5.420374 
1 6.588348 -11.267459 -6.405541 
15 6.964448 -10.431409 -6.213003 
6 6.814348 -9.546399 -5.782720 
2 7.355348 -10.123649 -5.240000 
2 7.975748 -9.836559 -5.997066 
3 8.880748 -9.655909 -6.399369 
8 9.782848 -9.319359 -6.268033 
7 10.430948 -10.038939 -6.282046 
1 11.119248 -9.344219 -6.124659 
15 11.036248 -8.469289 -5.770581 
8 11.805148 -8.284289 -6.266106 
7 12.306248 -8.982109 -5.791890 
1 12.780948 -9.193249 -6.621284 
7 13.259648 -9.371199 -5.688739 
6 12.475348 -9.943909 -5.374541 
1 12.311948 -9.688129 -4.495640 
7 12.292548 -8.947259 -3.830960 
15 11.338548 -9.112659 -3.648840 
1 11.993848 -9.657539 -3.131920 
8 11.916348 -10.276299 -2.320240 
1 12.827848 -10.050769 -2.723930 
8 12.640548 -9.155869 -2.201920 
7 13.095148 -8.374059 -2.593230 
4 13.894548 -8.568379 -2.188660 
14 13.833248 -9.521159 -2.388730 
8 13.910648 -10.258639 -1.832610 
3 13.864948 -10.302959 -0.869860 
8 13.414348 -11.058269 -1.306620 
1 13.561348 -11.190779 -2.261680 
1 13.280148 -12.080749 -2.314670 
1 12.458848 -11.473799 -2.527540 
8 12.184548 -12.210179 -1.928720 
3 11.648248 -12.891949 -2.500640 
14 11.868648 -13.871425 -2.293400 
15 12.729248 -13.865409 -2.838980 
7 13.312048 -14.328996 -3.444030 
1 13.489548 -15.347547 -3.512770 
1 14.072848 -15.559418 -4.253990 
3 13.451348 -15.110597 -4.861900 
14 14.309448 -15.060505 -5.308890 
1 15.224048 -14.793654 -5.162680 
4 14.643848 -14.466060 -4.516330 
1 14.818448 -14.424858 -3.556470 
7 14.705148 -13.442439 -3.537880 
3 15.390148 -12.952529 -4.095670 
1 16.304448 -12.849599 -4.407730 
1 16.251948 -12.018889 -3.928830 
3 16.999748 -11.717529 -4.500400 
9 16.769148 -10.952439 -4.116770 
9 16.362848 -10.662129 -3.301000 
1 17.068048 -10.738729 -2.648060 
1 17.043948 -10.210229 -1.849190 
11 16.795548 -9.346469 -1.625990 
6 16.950848 -8.682139 -0.904070 
1 17.590848 -9.389399 -0.588420 
5 18.129448 -8.861019 -1.241350 
1 18.790348 -9.043359 -1.962200 
16 18.967748 -9.153869 -2.881060 
9 18.039848 -9.269999 -3.122160 
1 18.663948 -9.692939 -3.729190 
1 18.191648 -9.295199 -4.473340 
9 17.234148 -9.554409 -4.715420 
16 17.716048 -9.676189 -5.561557 
15 16.862748 -10.017279 -5.601464 
1 16.636848 -10.335859 -6.434881 
10 16.359848 -10.902819 -7.242833 
1 16.620048 -10.473639 -8.116230 
3 15.750448 -10.309029 -8.448930 
1 15.427748 -9.989659 -7.578120 
1 14.631448 -9.441639 -7.693300 
13 14.696448 -9.013159 -6.828828 
7 14.117348 -8.350199 -6.377343 
15 13.575648 -8.670279 -7.138775 
12 13.085048 -8.031499 -7.814830 
1 12.609848 -8.512579 -8.435230 
1 12.049748 -8.946389 -9.093200 
5 11.299248 -8.995139 -8.448480 
8 10.352348 -9.258149 -8.477330 
3 10.373248 -8.330099 -8.390870 
1 10.222348 -7.509919 -7.850710 
15 10.004448 -8.224539 -7.163806 
10 9.154348 -8.482609 -7.534790 
15 8.919048 -8.128319 -6.631030 
6 8.191448 -8.456989 -6.041551 
6 8.486448 -8.433789 -5.049410 
15 9.365948 -8.467499 -4.789100 
15 10.087648 -9.055389 -5.254790 
6 9.935748 -10.043629 -5.389217 
1 9.121048 -10.100829 -4.974520 
10 9.411248 -9.485119 -4.308860 
15 9.810348 -9.427559 -3.451070 
10 10.012248 -10.335779 -3.443440 
8 10.807648 -10.639189 -2.972780 
1 10.679548 -9.711729 -2.727260 
8 11.087248 -9.358619 -1.915870 
15 10.245948 -8.960129 -2.125460 
6 10.912648 -8.383269 -1.644660 
12 11.546548 -8.465139 -2.387760 
7 12.215948 -7.841489 -2.100240 
1 12.706048 -8.228189 -1.293000 
8 13.070148 -9.109199 -1.199500 
1 14.003948 -9.253019 -1.302510 
2 14.801048 -8.836119 -0.906240 
6 15.589548 -8.345669 -0.895890 
6 15.478348 -8.815349 -1.751230 
2 15.853048 -9.508669 -2.306460 
9 16.565148 -9.765269 -2.923130 
7 16.891548 -8.914039 -2.683510 
6 17.158748 -7.965519 -2.401630 
2 17.667148 -7.889449 -3.270480 
8 18.521548 -7.670459 -3.493830 
2 18.054648 -7.848499 -4.327720 
8 19.054648 -8.147999 -4.512240 
1 18.729148 -8.295319 -5.435680 
1 18.560048 -7.364789 -5.594214 
8 18.631348 -6.861579 -4.718970 
15 18.663448 -6.606799 -3.763930 
2 17.887748 -6.726219 -3.187540 
2 16.871648 -6.947999 -2.995090 
6 16.127448 -7.483359 -2.708210 
2 16.577748 -8.038539 -3.447510 
9 15.986748 -8.811509 -3.553700 
6 15.959748 -8.487129 -2.638180 
3 15.095048 -8.474279 -3.112480 
7 14.269448 -8.220829 -3.504950 
1 14.451648 -7.637079 -2.688530 
7 14.250748 -6.673439 -2.946390 
6 15.188748 -6.739669 -2.460180 
1 15.835648 -6.084059 -2.663280 
1 15.812548 -5.748999 -3.556370 
2 16.743748 -6.128049 -3.725660 
2 17.138848 -6.204739 -4.577520 
1 17.432448 -6.785679 -5.400003 
2 16.598548 -6.989299 -4.889590 
6 16.711048 -7.736919 -5.452992 
2 16.484348 -7.951319 -4.490380 
7 15.531648 -8.152459 -4.813310 
1 15.925648 -8.344079 -5.657939 
7 15.364548 -9.110349 -5.258910 
3 15.176248 -9.745169 -4.601080 
9 15.587848 -10.552569 -4.218660 
1 15.736748 -11.014509 -5.034930 
15 15.020848 -10.775509 -5.661056 
11 14.522848 -11.372899 -5.076430 
4 13.561048 -11.346459 -5.306760 
3 13.075848 -11.508719 -4.402380 
6 12.927948 -10.583319 -4.377150 
5 13.333148 -9.936539 -3.754220 
7 13.705648 -9.087999 -4.083740 
15 13.947848 -9.758959 -4.782000 
7 14.041148 -8.899569 -5.168240 
7 13.833648 -8.139639 -4.642680 
7 13.043648 -7.614569 -4.696800 
7 13.139648 -6.650159 -4.403730 
7 12.693448 -7.246529 -3.754520 
7 13.121748 -7.376019 -2.925800 
1 13.150148 -7.077309 -2.023480 
7 12.798748 -6.223209 -2.286880 
7 12.109048 -5.821979 -2.896810 
1 12.267548 -5.461059 -3.803750 
7 12.097648 -6.389569 -3.793340 
7 11.590548 -7.174599 -3.822830 
15 10.941348 -7.873389 -3.855540 
7 11.039948 -7.463459 -2.955380 
1 10.543648 -7.433169 -2.180630 
16 10.011048 -6.645609 -2.239280 
3 9.044348 -6.913789 -2.187870 
1 9.457848 -7.802829 -2.080170 
15 9.441248 -8.525559 -2.661250 
3 9.445448 -7.579089 -3.100640 
15 9.868948 -7.897509 -3.885960 
10 10.084548 -6.995159 -4.082190 
1 10.383548 -6.128689 -4.493790 
1 10.738048 -5.272349 -4.175220 
14 10.457248 -5.074689 -3.281270 
7 10.038448 -5.919369 -3.219740 
1 9.142448 -5.547869 -3.289050 
3 8.204548 -5.663719 -3.444440 
10 8.422548 -5.250999 -4.292370 
6 8.533748 -5.474909 -5.314050 
7 7.905148 -4.704569 -5.451423 
6 8.027748 -5.054629 -6.390389 
3 8.852748 -4.800269 -6.691253 
6 8.793948 -5.760309 -6.654890 
3 9.625348 -5.317369 -6.287899 
1 9.986448 -5.922059 -5.605569 
3 10.022048 -4.949689 -5.427907 
3 9.963648 -4.049169 -5.173900 
6 10.390348 -3.194669 -5.234650 
3 10.822448 -3.547269 -6.014264 
3 10.498148 -3.646469 -6.894346 
6 10.604548 -3.470969 -7.829690 
1 11.160248 -2.798569 -8.247020 
5 10.515848 -2.035669 -8.161800 
5 10.017948 -1.706369 -8.868740 
1 9.969448 -2.419069 -9.431850 
1 9.262848 -3.153569 -9.561010 
7 8.572948 -2.966169 -8.891380 
1 8.882548 -3.838869 -8.750810 
1 8.464248 -4.680569 -8.383390 
3 8.973748 -4.226269 -7.727260 
3 9.458548 -3.622769 -7.146574 
1 9.819048 -2.835669 -7.747190 
6 9.156748 -2.181369 -7.469500 
1 8.959548 -1.335069 -7.139344 
5 9.854348 -1.052669 -6.858927 
5 10.782448 -1.326969 -6.984943 
6 10.821848 -2.013269 -6.300194 
3 9.973748 -2.115769 -5.912243 
5 8.983548 -1.921969 -6.096465 
7 8.479048 -1.954369 -5.218100 
8 7.602048 -1.732069 -4.804590 
15 7.013248 -2.491069 -5.022740 
12 7.044948 -3.216769 -4.457650 
1 7.922848 -3.583369 -4.332370 
4 8.914248 -3.461369 -4.388550 
3 9.084648 -3.459069 -5.297870 
3 8.730248 -3.551069 -6.252260 
1 8.415148 -2.673669 -6.455077 
1 7.643148 -2.382769 -5.940006 
4 7.394848 -3.400169 -5.883597 
8 6.510348 -3.195969 -6.309262 
1 6.643748 -3.613469 -7.225248 
1 7.578248 -3.882869 -7.432710 
1 7.348448 -4.377569 -6.690825 
1 6.523748 -4.889499 -7.039988 
7 6.387448 -5.785399 -6.670800 
6 6.798548 -5.791769 -5.830621 
6 5.918148 -5.665939 -5.430158 
7 5.508948 -4.867669 -5.080610 
1 4.867948 -5.308379 -5.670093 
14 4.592348 -5.308169 -6.613755 
10 5.197848 -5.585149 -7.246678 
15 5.705248 -6.264939 -7.730600 
10 6.496848 -6.745669 -7.427070 
6 7.033748 -6.604229 -6.607693 
7 7.833248 -6.818289 -7.202360 
6 8.545848 -6.879179 -6.580266 
15 9.302148 -6.523279 -7.112557 
3 9.563148 -5.721659 -7.564000 
1 10.131648 -5.230979 -8.208050 
1 11.007848 -5.494209 -7.867870 
3 11.019748 -4.665869 -7.344040 
10 11.554748 -4.280169 -7.988300 
10 12.072448 -4.867269 -8.630550 
10 12.634248 -4.116969 -8.799860 
10 12.452448 -3.400869 -8.152030 
10 13.327248 -3.445769 -7.680900 
10 13.742848 -4.251269 -7.377660 
10 14.491448 -4.442069 -7.987670 
10 13.704848 -4.301469 -8.402950 
10 13.151948 -5.056409 -8.725530 
10 12.538848 -5.537399 -8.114430 
10 13.249448 -6.181089 -8.344280 
10 14.136848 -6.351989 -7.956150 
10 14.561248 -5.914179 -7.267311 
10 14.095748 -5.279569 -6.757925 
10 13.216448 -4.944139 -6.798844 
10 12.548948 -5.471249 -7.104189 
10 12.252448 -4.595769 -6.818347 
3 11.716448 -4.415769 -6.040009 
1 12.268248 -4.628969 -5.231260 
1 13.155148 -4.853769 -5.137500 
1 13.881048 -5.235309 -5.749265 
5 13.991748 -5.921819 -5.023200 
7 14.027748 -6.310669 -4.124950 
3 14.528948 -5.829609 -3.468380 
2 15.168948 -6.431349 -3.808210 
2 15.116048 -7.330219 -3.484120 
7 14.769648 -7.650049 -4.402830 
2 15.413348 -6.991819 -4.701400 
2 15.670648 -6.561859 -5.577395 
7 14.793948 -6.868459 -5.757908 
10 14.330348 -6.723499 -6.565945 
7 13.841848 -7.403359 -6.079505 
7 13.027348 -7.128769 -5.640611 
10 12.902248 -6.872839 -6.599793 
1 12.341348 -7.051799 -7.317566 
3 11.376048 -7.143139 -7.143344 
15 10.735948 -7.725549 -6.658889 
15 10.611648 -7.303139 -5.786753 
1 10.512948 -6.603069 -6.542162 
3 10.448448 -5.653359 -6.749182 
16 11.440048 -5.627959 -6.668966 
3 10.991948 -5.483089 -5.765462 
7 11.572848 -6.063489 -5.149170 
16 11.950348 -6.315169 -6.011253 
6 11.882548 -7.239419 -5.769127 
7 12.219048 -8.014079 -5.304520 
7 12.169648 -8.065819 -4.302590 
15 11.432848 -8.483499 -4.664540 
1 11.045348 -9.423209 -4.748140 
14 10.620148 -10.232809 -4.369950 
1 10.493048 -10.998109 -4.962930 
10 9.592248 -10.917919 -4.552370 
10 8.791648 -11.368079 -4.303340 
14 8.833648 -11.331869 -5.271850 
1 9.075548 -11.826779 -6.113926 
8 8.205548 -11.648919 -6.457453 
1 8.170548 -12.537369 -6.160650 
1 8.421148 -13.154829 -5.507471 
1 9.099948 -13.053379 -4.814140 
15 9.113448 -13.404109 -3.906970 
1 9.354848 -12.757449 -3.107470 
10 8.661848 -12.183699 -3.348350 
10 8.492848 -11.876769 -2.433910 
15 8.084648 -11.542499 -1.596340 
1 8.079948 -12.220159 -0.899030 
8 8.528848 -12.110939 0.087990 
15 8.250148 -11.206319 -0.083690 
1 8.868648 -10.884849 0.531930 
1 8.729548 -10.650229 1.471030 
1 8.680248 -10.019659 2.169170 
1 8.070248 -9.990359 2.894000 
9 8.405748 -9.478909 3.690250 
8 7.755548 -9.593559 4.477450 
2 7.135448 -9.194839 3.794250 
15 6.402348 -9.004149 4.371350 
1 5.757948 -8.712899 4.967550 
2 6.302148 -8.408109 5.687450 
1 6.540748 -7.749179 6.331350 
1 7.139348 -6.977539 6.546250 
9 7.134748 -6.420399 5.702050 
1 7.971948 -5.936759 5.625950 
1 8.720548 -6.488819 5.288950 
9 8.253648 -6.978539 4.576450 
11 7.494348 -6.511709 4.203550 
15 8.107348 -5.870299 3.898150 
3 7.936648 -5.334409 3.174130 
1 7.478448 -4.562669 3.011320 
7 6.773248 -4.369769 2.453280 
12 6.000648 -3.882669 2.854130 
7 5.814148 -4.550469 3.527250 
1 5.083448 -4.620569 4.113750 
6 4.519648 -3.975769 3.633010 
6 4.847048 -3.901969 2.726390 
17 4.958948 -3.857869 1.750930 
6 4.188248 -4.434569 1.875380 
1 3.811748 -5.207579 1.321350 
7 2.828748 -5.265179 1.065880 
1 3.263248 -5.556419 0.180630 
8 2.722548 -6.074199 -0.348900 
1 2.904348 -5.953909 -1.291410 
3 2.390448 -5.662469 -2.146040 
6 1.666848 -6.089929 -1.569420 
1 1.950448 -5.338479 -1.075690 
6 1.384148 -4.953439 -0.379960 
7 1.391148 -5.042359 0.704170 
3 1.738948 -5.787719 0.191830 
7 1.122948 -6.112799 0.793440 
5 1.424548 -6.769099 0.113970 
6 0.675348 -6.250099 -0.426250 
6 -0.086852 -6.041019 -0.950240 
6 -0.285952 -6.094989 0.036180 
7 0.155248 -5.633119 0.724040 
7 -0.324652 -5.270179 1.462050 
3 -1.320452 -5.260069 1.247310 
14 -1.301452 -5.335279 0.222260 
6 -0.933952 -5.402699 -0.671880 
6 -0.644352 -4.480169 -0.542710 
7 -1.140852 -3.901569 0.043150 
5 -1.896552 -3.878669 0.618070 
1 -2.417952 -3.656869 1.393110 
9 -2.726652 -4.549069 1.839300 
6 -1.849652 -4.705969 2.170050 
1 -1.412452 -3.953169 1.647310 
7 -0.459752 -4.100369 1.506630 
1 -0.678652 -3.418369 0.896080 
7 0.238348 -3.618069 0.883540 
7 0.580848 -4.178969 0.072010 
6 0.567248 -4.245769 -0.930210 
1 0.155548 -4.045869 -1.779840 
6 0.644948 -4.807769 -2.159920 
14 1.473248 -4.198469 -2.177860 
1 2.400748 -4.350569 -2.168640 
14 3.080348 -3.732869 -2.123950 
14 2.846748 -3.214269 -2.905480 
11 2.442748 -3.867969 -3.530550 
1 1.772348 -3.418869 -3.021550 
14 1.349748 -2.786569 -2.454430 
14 2.165148 -2.320769 -2.567420 
14 2.936948 -1.950969 -2.926980 
14 3.622648 -1.688169 -2.329770 
14 3.483348 -1.679369 -1.437730 
14 3.624348 -2.474569 -0.919850 
10 3.812348 -3.418469 -0.929100 
1 4.593148 -3.049969 -1.447570 
14 4.080048 -3.124469 -2.290190 
1 4.851848 -3.596469 -2.532850 
5 5.645148 -4.212469 -2.400680 
7 4.979148 -4.597669 -3.037740 
4 5.861648 -5.069139 -2.912560 
3 6.157348 -5.957239 -3.061560 
8 5.197648 -5.920229 -3.061930 
10 5.516548 -6.008539 -2.148540 
3 6.459648 -5.671799 -2.094110 
3 7.252048 -6.216719 -1.859740 
3 7.640248 -5.281089 -1.969950 
1 7.639348 -4.403469 -1.457830 
7 8.262648 -5.080369 -1.107900 
8 7.353248 -5.036719 -0.556280 
10 7.021748 -4.843069 0.351490 
1 6.146048 -5.208299 0.195520 
2 6.378348 -5.749149 -0.620860 
3 6.278348 -6.610479 -1.133800 
4 5.422248 -7.069309 -1.194380 
3 6.027248 -7.741869 -1.618750 
8 5.489348 -8.508909 -1.636560 
7 6.209448 -9.221069 -1.639730 
1 7.205848 -9.365279 -1.162420 
3 6.995848 -8.399979 -1.169230 
1 6.533248 -8.949449 -0.469630 
7 6.217048 -8.015399 -0.207380 
3 6.925948 -7.382029 -0.471890 
6 7.831548 -7.666999 -0.220930 
1 8.266248 -8.541979 0.012300 
15 8.745948 -8.310409 -0.846270 
8 8.514948 -7.413659 -1.063730 
3 8.081448 -7.086619 -1.846220 
3 7.632048 -7.949779 -2.243540 
3 6.672648 -7.799349 -2.553780 
14 6.115248 -7.699369 -3.260190 
6 6.333548 -7.209139 -4.030160 
3 6.775648 -6.844669 -3.293750 
3 7.388348 -6.912569 -2.592160 
3 7.808348 -6.622579 -3.444800 
6 7.293548 -6.161359 -4.155710 
1 7.537748 -6.187379 -5.024330 
6 7.229048 -6.930789 -5.522579 
6 8.151848 -7.030939 -5.353286 
15 8.756948 -7.621819 -5.790316 
15 9.486148 -7.456199 -5.240450 
1 9.040048 -7.140079 -4.531260 
3 8.251548 -7.375769 -4.020620 
6 7.798848 -8.219539 -4.212290 
3 8.338148 -8.386299 -3.407430 
10 8.426048 -9.333169 -3.766650 
6 8.113748 -9.737839 -4.589380 
10 7.961048 -10.675669 -4.349980 
15 7.659548 -11.459389 -4.736730 
9 7.038548 -11.874059 -4.186710 
10 7.010348 -11.765199 -3.122630 
9 6.665348 -11.685199 -2.172260 
7 6.440748 -10.732229 -2.420270 
1 7.353948 -10.851709 -2.849660 
10 7.672448 -10.220089 -3.487370 
1 6.807048 -10.389149 -4.095470 
6 6.565548 -9.577949 -4.598820 
7 7.208348 -9.301009 -4.021220 
6 6.845348 -8.357819 -4.456250 
3 6.713748 -8.514269 -3.501590 
7 6.643548 -8.958949 -2.651710 
7 7.571548 -9.218169 -2.870290 
15 8.381848 -9.188579 -2.295910 
15 8.603348 -9.772199 -1.618270 
7 7.945948 -10.468129 -1.834500 
10 8.501748 -10.383209 -2.711290 
10 9.211148 -10.965779 -3.002400 
15 9.406048 -10.773419 -2.051060 
8 10.282448 -11.430919 -2.043420 
1 9.871548 -12.273559 -1.904180 
7 10.189948 -13.177699 -1.728700 
1 11.020248 -13.466069 -1.204820 
15 11.165848 -12.847719 -0.405230 
6 11.649348 -12.198809 -1.067740 
2 12.295248 -11.525609 -1.115010 
8 11.842748 -10.737839 -1.374860 
8 11.113748 -11.360579 -1.173230 
1 10.162548 -11.479109 -0.936550 
15 9.261248 -11.731679 -0.924890 
13 9.631848 -11.337659 -0.050670 
15 9.479848 -10.430649 -0.359730 
8 10.314848 -10.509539 -0.887270 
15 9.584348 -10.135359 -1.394530 
15 10.138348 -9.461739 -1.079220 
8 11.023748 -9.805619 -0.990520 
1 10.777048 -8.908449 -0.629950 
15 9.855248 -8.568149 -0.675660 
1 9.881748 -7.702229 -0.260210 
1 9.850548 -7.515579 0.769420 
5 10.576948 -7.063689 0.432420 
1 11.252248 -6.656319 -0.058630 
1 11.211448 -6.909199 -0.957460 
1 11.961448 -6.695249 -1.514860 
7 11.177848 -6.700779 -2.079050 
7 10.949948 -5.795179 -2.195950 
12 10.107148 -5.582109 -1.824330 
12 9.809648 -4.724769 -2.009950 
1 9.536248 -3.946469 -1.471420 
1 9.606048 -3.835669 -0.485610 
12 8.732948 -3.692769 -0.030670 
1 8.261448 -4.022369 0.824810 
1 7.271448 -3.923969 0.807630 
1 6.387348 -3.933269 0.503600 
1 6.017348 -3.051669 0.730260 
1 5.232148 -3.543969 0.383170 
1 4.594248 -4.254769 0.279860 
3 3.628048 -4.301269 0.144470 
5 3.287448 -4.367969 1.055040 
6 3.047348 -3.972769 1.874550 
7 2.483548 -4.770969 2.010230 
6 3.239248 -5.030859 2.556920 
2 3.135648 -5.892059 3.074730 
3 4.032348 -5.892119 3.423710 
1 4.204548 -6.053149 2.552620 
5 4.367448 -6.962549 2.349650 
13 4.720348 -6.862079 3.218470 
14 4.340748 -7.759069 3.639810 
2 3.657848 -7.021179 3.692450 
2 3.137148 -7.115899 4.502450 
1 4.051548 -7.129619 4.559550 
9 4.246248 -6.335629 5.149350 
2 3.324548 -6.000509 5.375250 
1 3.762648 -5.347139 5.932150 
1 4.614448 -5.225839 5.484750 
1 4.104148 -4.652569 4.954650 
2 3.321948 -4.975629 4.495250 
6 3.371148 -4.810269 3.568310 
1 2.560448 -4.486769 3.889450 
2 2.378948 -5.442609 4.094950 
2 2.260148 -6.135409 4.776150 
1 2.523848 -6.580719 5.676050 
1 2.768348 -6.821519 6.606350 
1 3.313848 -6.056519 6.661350 
7 2.572648 -5.418659 6.310250 
15 2.310848 -5.278079 7.196950 
3 1.610648 -5.026419 6.587750 
2 1.490048 -5.451909 5.770650 
10 1.565548 -6.258029 6.320850 
9 0.763448 -6.762109 6.638650 
15 0.483448 -7.322849 5.882150 
10 1.194148 -6.833809 5.407550 
2 0.695148 -6.344739 4.714150 
1 -0.094452 -6.919329 4.842850 
1 -0.755952 -6.248029 5.156950 
10 -0.387952 -6.699539 5.969750 
6 -0.376952 -5.958779 6.575750 
10 0.142948 -5.171959 6.541550 
11 0.074448 -4.425069 5.907750 
15 0.980548 -4.183269 6.281950 
9 1.777848 -4.353469 5.693050 
2 1.814848 -4.446369 4.703450 
7 0.904148 -4.665469 5.059450 
10 0.217948 -5.337509 5.139850 
15 0.007648 -4.645169 4.421750 
7 0.073648 -5.013159 3.437540 
2 0.465548 -5.715239 3.922750 
1 -0.411352 -6.308189 4.041450 
1 -0.786252 -7.161839 3.923050 
15 -0.462352 -7.664809 3.142030 
6 -0.180952 -8.437989 2.591600 
5 -1.080252 -8.303069 2.374230 
8 -1.730852 -7.608149 2.261530 
8 -1.487652 -6.738919 1.930710 
1 -0.759352 -6.104999 2.135790 
7 0.029148 -5.753859 2.520050 
2 0.926548 -5.769929 2.942750 
7 1.274148 -6.344239 2.187070 
4 0.648648 -7.054399 2.522960 
3 1.308248 -7.538829 2.007190 
15 1.310748 -7.306949 1.070100 
7 0.436648 -7.673079 1.325460 
15 -0.293452 -8.263419 1.395910 
15 -0.453352 -7.794569 0.578580 
6 -1.025352 -6.978489 0.371010 
8 -1.940652 -6.730409 0.698480 
15 -2.313152 -5.835949 1.156280 
8 -3.077752 -6.430159 0.821120 
15 -3.268352 -5.904199 0.048400 
8 -2.719952 -6.650739 -0.149700 
5 -2.141552 -5.828519 -0.208230 
6 -2.060452 -6.228429 -1.099770 
7 -1.928952 -5.207229 -0.996160 
6 -1.297652 -4.837869 -1.688250 
2 -1.198052 -4.300069 -2.421990 
1 -0.279352 -4.684669 -2.697490 
1 -0.657852 -5.599639 -2.561080 
6 0.060048 -5.890349 -1.968510 
1 0.863848 -5.901929 -2.550630 
7 1.056048 -6.307799 -3.365510 
13 0.653148 -5.461269 -3.616000 
10 0.312348 -6.244129 -4.071870 
7 -0.578352 -5.851739 -4.290670 
1 -1.380052 -6.269879 -3.905670 
1 -0.670752 -6.521839 -3.202640 
1 -0.434652 -7.174879 -2.519660 
6 -0.415452 -6.965439 -1.457350 
6 -1.323652 -7.108569 -1.674630 
9 -1.903452 -7.737369 -1.093900 
8 -2.500252 -8.121539 -0.438040 
8 -1.814552 -7.868119 0.145080 
6 -1.017552 -7.834609 -0.519220 
3 -0.407152 -8.393709 -1.099760 
1 0.404448 -7.872609 -1.021780 
6 1.133948 -7.625339 -1.726970 
8 0.821948 -8.525339 -1.807870 
16 0.792948 -9.452219 -1.395910 
1 0.416848 -10.299669 -1.655500 
1 -0.177552 -10.047439 -0.806030 
3 -0.315552 -10.383409 0.098140 
10 -0.972352 -9.774969 -0.017890 
1 -0.492152 -9.785709 0.844550 
3 -1.319952 -9.362279 0.943620 
7 -2.014052 -8.896709 1.403520 
8 -2.362552 -7.992179 1.457890 
1 -2.916652 -8.005239 2.230160 
8 -3.378552 -7.657579 1.452650 
16 -3.977752 -7.513559 2.288960 
1 -4.041052 -6.670669 2.762690 
1 -3.600252 -5.767689 2.591710 
9 -2.924152 -5.178819 2.933920 
1 -2.225152 -4.618769 3.256150 
1 -1.296552 -4.247969 3.489740 
1 -1.186552 -3.631469 2.688150 
7 -0.167252 -3.714469 2.561830 
3 0.517348 -3.021369 2.839710 
3 0.192048 -2.313569 3.361570 
16 -0.165152 -1.438969 3.346260 
1 -0.837452 -0.814369 3.205040 
1 -0.325952 0.071731 3.315120 
15 -0.477452 0.816131 2.681880 
7 -0.508752 1.673731 2.299190 
16 -0.297552 2.638931 2.367450 
16 0.536548 2.761131 1.966990 
1 0.288048 1.961931 1.429540 
15 1.170248 1.681231 1.088150 
15 2.017348 1.401331 1.424630 
1 2.563448 0.980131 2.094400 
2 3.216648 0.192631 2.104290 
3 3.478348 -0.737269 2.032350 
1 3.470248 -1.572369 1.468280 
6 3.516048 -2.350269 2.117310 
2 4.393948 -2.258969 2.708490 
6 4.151848 -3.045769 3.173220 
15 4.161948 -3.136069 4.159950 
6 3.352448 -2.695369 4.375850 
3 2.910448 -1.794169 4.256850 
1 3.378648 -1.207669 3.525010 
15 4.112548 -0.651369 3.036810 
3 3.948148 0.336931 3.095660 
3 3.091448 0.682531 3.378570 
9 2.550348 1.180931 4.021650 
1 2.205548 0.308831 4.171550 
9 2.069748 -0.740969 4.209450 
3 1.785148 -0.857369 3.276000 
3 2.233148 -1.344369 2.601110 
1 2.500048 -2.258769 2.480610 
6 3.003848 -3.137369 2.742710 
3 2.234948 -2.933469 3.222460 
6 2.402948 -3.247169 4.090750 
3 1.975948 -2.499569 4.489250 
13 2.298948 -2.009069 5.246050 
15 1.623148 -1.344469 5.070250 
3 1.136448 -1.597369 4.263450 
15 0.578848 -1.925669 4.984050 
12 0.669348 -2.761569 5.478550 
8 0.993048 -3.243869 4.670450 
3 0.625748 -3.508669 3.847850 
7 0.830048 -4.249969 3.283100 
2 1.362048 -5.046799 3.570110 
6 1.701148 -4.816469 2.762230 
7 1.466748 -4.630069 1.864960 
15 1.623448 -3.809869 2.410250 
7 0.768248 -3.756369 1.906710 
1 1.331348 -2.957969 2.109560 
3 1.417248 -2.157969 2.655890 
3 0.947148 -1.597769 3.224080 
1 0.633548 -0.627969 3.126200 
3 0.007448 -0.890669 2.466230 
13 -0.575552 -0.681169 1.813990 
12 -0.227052 -0.244969 1.023200 
15 0.745448 -0.312569 0.750860 
3 0.817248 -1.178169 1.215910 
15 0.413948 -1.195369 0.310990 
12 -0.255452 -1.731269 0.737000 
7 0.191448 -2.608469 0.694520 
7 0.913148 -2.873669 1.211220 
3 1.271248 -2.059769 1.596800 
12 2.030148 -1.986169 0.967260 
14 2.052648 -1.400069 0.243120 
9 2.541748 -0.611469 0.567020 
15 2.438848 0.227531 0.983650 
1 3.054648 1.051831 1.122220 
9 3.735048 1.708931 1.221040 
3 3.050448 2.316831 0.869500 
1 2.654348 2.983531 0.275510 
7 3.208548 3.517031 0.800570 
14 4.017648 4.075931 0.854820 
1 4.326048 4.506031 0.041620 
1 3.631548 4.268731 -0.556510 
15 3.499148 3.490131 -1.066170 
6 3.172348 2.803931 -1.691980 
9 3.772748 2.958531 -2.461960 
3 3.052648 3.559931 -2.487390 
9 2.640148 3.427831 -3.409790 
7 1.839148 3.158631 -3.970600 
1 2.326748 2.572731 -4.558280 
9 3.005048 2.464931 -3.839160 
7 2.392348 1.666831 -3.724480 
9 2.676248 2.136031 -2.906490 
7 1.724848 2.365731 -3.172090 
1 1.874448 2.529631 -2.221430 
1 1.637848 3.257931 -1.573480 
9 1.991548 2.895631 -0.713910 
15 1.747748 2.052031 -0.304880 
15 2.540948 1.506531 -0.437030 
6 3.494648 1.911931 -0.428210 
15 4.350648 1.796031 -0.038170 
9 4.450748 0.938131 0.384900 
1 5.097448 0.681031 1.046600 
1 5.347048 1.248831 1.802040 
1 6.309348 1.129531 2.015030 
9 5.709248 0.457431 2.286850 
7 6.020748 -0.261769 2.748800 
2 5.988848 -0.060469 3.724750 
1 5.280648 -0.759869 3.857150 
5 4.505348 -0.099569 4.014550 
3 5.004648 0.651431 3.774750 
5 4.348748 0.884231 4.420950 
9 3.631148 1.471231 4.560150 
5 3.180748 0.525831 4.758050 
15 3.242348 -0.206069 4.052650 
1 2.706948 -0.437969 3.277430 
1 2.347448 -0.327969 2.434260 
5 1.675448 0.275231 2.463990 
1 0.695548 0.607031 2.398860 
15 0.446448 0.923331 1.540650 
8 -0.376352 1.129631 1.061300 
8 -1.317452 1.427731 0.822220 
1 -1.810452 1.678131 1.643070 
15 -1.682652 2.434331 2.278560 
1 -2.161952 1.819031 2.760890 
1 -2.526052 0.862431 2.722790 
5 -3.418052 1.191031 2.761290 
5 -3.293252 1.678131 1.944900 
8 -2.939652 0.968431 1.372870 
9 -3.480452 0.146131 1.389250 
1 -3.350252 0.395331 0.461450 
1 -3.211652 -0.433269 -0.013350 
1 -2.331752 -0.900869 -0.067250 
8 -1.874952 -0.144469 0.455870 
15 -1.126252 -0.532569 -0.115170 
15 -0.825752 0.164131 -0.786410 
1 -1.686852 0.557531 -0.450800 
8 -1.375652 1.402431 -0.181450 
1 -0.843652 1.187831 -0.991160 
8 -0.219652 0.817531 -0.403520 
15 0.593148 0.572731 -0.867580 
15 1.219648 0.146131 -1.402530 
14 1.776448 -0.636169 -1.751220 
14 1.871348 -1.264769 -1.097080 
15 2.023448 -0.316769 -0.811430 
14 2.800348 -0.800469 -1.072370 
8 3.537048 -1.071469 -0.398600 
1 4.225748 -1.434169 0.201650 
8 3.730648 -2.163469 0.546400 
15 3.503848 -3.108669 0.343560 
14 2.710048 -2.610269 0.193870 
7 2.040048 -3.182369 0.577410 
7 1.922948 -3.932469 0.008730 
14 1.878848 -3.409869 -0.796060 
14 2.640548 -2.873069 -0.946830 
14 2.182748 -2.164769 -1.510180 
14 1.346248 -2.618469 -1.423150 
7 0.658648 -3.184269 -0.969580 
15 -0.066052 -2.508269 -1.196790 
7 0.329448 -2.327069 -0.407960 
14 0.951648 -1.800469 -0.891290 
15 0.239048 -1.214369 -0.624150 
1 -0.562852 -0.939369 -1.014980 
15 0.152848 -0.295669 -1.216980 
14 0.773948 -0.831469 -1.571750 
16 0.575848 -0.189769 -2.206930 
7 0.947948 0.736831 -2.234540 
1 0.011848 1.130031 -2.030040 
6 0.192548 1.943531 -1.562990 
15 0.831448 1.631431 -0.906870 
1 0.741748 1.517631 0.024060 
15 0.887048 0.588731 0.140940 
15 1.763648 0.043231 0.137200 
15 2.608848 0.435831 -0.194680 
6 2.616948 0.798731 -1.119730 
7 2.316648 0.879631 -2.008660 
6 3.284348 0.521131 -1.925350 
1 3.141348 -0.119169 -2.635660 
7 2.599048 0.534431 -2.998760 
6 3.308048 1.202831 -2.762480 
9 3.589348 1.072831 -3.653040 
1 3.322348 0.354731 -4.178670 
7 2.616748 -0.264269 -4.443680 
1 2.784248 -1.098569 -3.974400 
1 1.862448 -1.421069 -3.749320 
14 1.922348 -0.910169 -2.826590 
7 1.607448 0.035031 -3.052890 
9 0.752248 -0.234869 -3.262760 
13 0.029248 0.009431 -3.820030 
1 0.648948 0.406631 -4.417830 
7 1.139748 1.078631 -4.026830 
1 0.319348 1.060031 -3.491940 
7 0.845448 1.802931 -3.336950 
3 0.201348 2.120331 -2.691640 
1 -0.705352 2.158931 -2.322700 
3 -0.494152 2.892131 -2.980040 
1 -0.185552 2.337531 -3.753370 
9 0.189648 3.272831 -3.886200 
7 0.628748 2.815231 -4.668260 
3 0.906348 2.471531 -5.521083 
1 0.264548 2.943631 -6.056557 
1 -0.210252 2.981931 -5.265980 
3 -1.136552 2.752731 -5.001320 
1 -1.309852 1.900531 -5.560489 
1 -1.800252 1.124831 -5.402050 
1 -1.781952 0.852131 -6.361080 
3 -1.108052 0.774331 -7.146443 
1 -0.316752 0.367931 -6.747097 
6 0.226448 0.956931 -7.189869 
7 0.488348 1.596231 -6.449722 
1 1.145348 0.871231 -6.353339 
1 2.055648 0.713031 -6.776662 
1 2.357748 1.515431 -6.264195 
6 1.678148 1.766431 -5.614589 
7 2.119848 1.383331 -4.880720 
1 2.938748 1.820031 -5.012860 
15 3.874848 1.636931 -4.788590 
9 4.233248 2.334531 -4.221850 
9 4.727548 2.639631 -3.466370 
1 5.241048 2.149731 -2.850150 
15 5.304748 1.657331 -1.972450 
9 4.478948 2.150231 -2.208600 
6 4.328848 1.767931 -1.333060 
6 4.259048 0.931031 -1.868800 
1 4.659848 0.997931 -2.725860 
9 4.860448 1.488731 -3.520910 
9 5.708148 1.030331 -3.846420 
6 5.853748 0.449431 -4.579630 
1 5.650248 -0.465469 -4.461140 
8 6.640048 -0.498669 -4.539760 
1 7.409548 -0.308069 -5.033620 
3 8.211448 -0.220669 -4.617380 
3 9.079148 -0.324869 -4.319450 
8 8.444348 -0.686669 -3.687890 
8 8.334648 -1.564369 -3.953980 
8 7.623748 -2.170769 -3.827180 
8 6.919948 -1.909469 -3.274110 
1 6.116848 -2.167669 -3.714670 
8 6.238148 -1.231669 -3.590520 
8 6.767348 -1.072269 -2.830770 
15 6.263648 -1.822069 -2.525620 
8 7.182948 -1.852469 -2.188400 
9 7.565448 -2.716469 -2.081170 
1 8.339648 -2.180369 -2.458660 
8 8.356648 -1.400869 -1.843900 