3021
Atoms. Timestep: 127000000
6 -16.7636 7.99001 4.54594
6 -17.0143 7.60266 5.41219
7 -17.8998 7.68383 5.76777
5 -18.604 7.27617 6.31898
1 -19.0732 6.4522 6.62512
12 -19.0095 6.18373 7.52349
3 -18.966 5.92992 8.42289
1 -19.5604 5.29614 8.0356
3 -20.3209 4.79772 7.83434
4 -20.2373 4.51309 6.92132
1 -20.2283 3.75683 6.28333
8 -20.5539 4.52672 5.70922
8 -21.0802 5.38994 6.01747
3 -21.1127 6.25909 6.37072
1 -21.2031 5.75657 7.21983
6 -21.4073 5.75652 8.16632
11 -22.3586 5.69426 7.96848
17 -22.8115 5.03401 7.43516
15 -23.3878 5.21481 6.67085
14 -24.4214 5.22397 6.87578
15 -24.7762 4.86454 5.9851
13 -25.6067 4.96259 6.6208
3 -26.1255 4.37751 7.22113
1 -25.6876 5.21062 7.61332
5 -25.5271 6.09868 8.01369
10 -26.0074 5.77807 8.80499
1 -26.9594 5.78926 8.83255
3 -27.9804 5.95917 8.99344
9 -28.1302 5.07267 8.53397
1 -28.6951 4.41892 8.99785
1 -28.9383 5.30568 9.40622
1 -29.6431 5.92424 9.28099
2 -30.4188 6.26284 9.715
10 -30.8539 5.89202 10.5213
3 -29.9948 6.2487 10.7432
1 -30.6366 6.86591 11.0658
2 -31.1577 7.613 10.6358
1 -31.9517 7.41749 10.0301
2 -31.3097 7.81476 9.49954
2 -30.4194 7.9978 8.95462
3 -30.5608 7.46541 8.16358
1 -30.3125 6.59951 7.85476
1 -30.0015 5.97258 7.22931
15 -29.2775 5.70946 6.66007
9 -29.2492 6.30005 5.92449
2 -28.433 6.2679 5.22179
1 -28.2463 5.51002 4.56498
7 -28.1365 5.63859 3.68395
1 -27.7277 6.49441 3.63355
6 -27.7347 6.36027 2.7168
14 -28.3032 7.14196 2.70397
1 -27.6104 7.6738 2.35367
6 -27.3402 7.81662 1.43793
6 -26.5055 7.27035 1.15785
6 -26.3916 7.08708 0.209204
16 -26.1879 6.5723 -0.598975
6 -25.8164 6.28 0.224593
15 -25.4615 5.76976 -0.518289
10 -26.2895 5.4663 -0.953092
16 -26.8671 5.48168 -0.170057
6 -27.5896 6.04504 0.178262
1 -28.0444 6.72891 -0.350453
1 -28.4638 7.49697 -0.0692855
6 -27.5802 7.70922 -0.321662
6 -27.9249 8.07386 0.526558
15 -28.4722 8.0904 1.30599
6 -28.257 7.08577 1.38814
1 -28.6563 6.27459 1.7925
6 -27.8083 6.18226 1.23373
6 -27.2935 5.71299 1.93084
7 -27.0516 5.57206 2.81501
7 -27.2994 4.67315 2.78934
1 -27.4267 3.7766 2.44327
1 -27.5404 3.37289 1.5083
6 -27.2504 4.22315 1.13892
16 -26.4279 3.76712 0.897476
1 -26.3604 3.60321 -0.087691
15 -25.9843 4.43926 0.104847
6 -26.1344 5.32427 0.53513
2 -25.5934 4.74702 1.07785
2 -24.973 5.03411 0.320784
3 -24.068 5.21476 -0.0815188
8 -23.1659 5.55131 0.0498172
7 -22.5178 4.83173 0.0358042
1 -21.8295 5.52645 0.193191
15 -21.9125 6.40138 0.547269
8 -21.1436 6.58638 0.0517442
7 -20.6425 5.88856 0.52596
1 -20.1678 5.67742 -0.303434
7 -19.6891 5.49947 0.629111
6 -20.4734 4.92676 0.943309
1 -20.6368 5.18254 1.82221
7 -20.6562 5.92341 2.48689
15 -21.6102 5.75801 2.66901
1 -20.9549 5.21313 3.18593
8 -21.0324 4.59437 3.99761
1 -20.1209 4.8199 3.59392
8 -20.3082 5.7148 4.11593
7 -19.8536 6.49661 3.72462
4 -19.0542 6.30229 4.12919
14 -19.1155 5.34951 3.92912
8 -19.0381 4.61203 4.48524
3 -19.0838 4.56771 5.44799
8 -19.5344 3.8124 5.01123
1 -19.3874 3.67989 4.05617
1 -19.6686 2.78992 4.00318
1 -20.4899 3.39687 3.79031
8 -20.7642 2.66049 4.38913
3 -21.3005 1.97872 3.81721
14 -21.0801 0.999244 4.02445
15 -20.2195 1.00526 3.47887
7 -19.6367 0.541673 2.87382
1 -19.4592 -0.476878 2.80508
1 -18.8759 -0.688749 2.06386
3 -19.4974 -0.239928 1.45595
14 -18.6393 -0.189836 1.00896
1 -17.7247 0.0770145 1.15517
4 -18.3049 0.404609 1.80152
1 -18.1303 0.445811 2.76138
7 -18.2436 1.42823 2.77997
3 -17.5586 1.91814 2.22218
1 -16.6443 2.02107 1.91012
1 -16.6968 2.85178 2.38902
3 -15.949 3.15314 1.81745
9 -16.1796 3.91823 2.20108
9 -16.5859 4.20854 3.01685
1 -15.8807 4.13194 3.66979
1 -15.9048 4.66044 4.46866
11 -16.1532 5.5242 4.69186
6 -15.9979 6.18853 5.41378
1 -15.3579 5.48127 5.72943
5 -14.8193 6.00965 5.0765
1 -14.1584 5.82731 4.35565
16 -13.981 5.7168 3.43679
9 -14.9089 5.60067 3.19569
1 -14.2848 5.17773 2.58866
1 -14.7571 5.57547 1.84451
9 -15.7146 5.31626 1.60243
16 -15.2327 5.19448 0.756293
15 -16.086 4.85339 0.716386
1 -16.3119 4.53481 -0.117031
10 -16.5889 3.96785 -0.924983
1 -16.3287 4.39703 -1.79838
3 -17.1983 4.56164 -2.13108
1 -17.521 4.88101 -1.26027
1 -18.3173 5.42903 -1.37545
13 -18.2523 5.85751 -0.510978
7 -18.8314 6.52047 -0.0594929
15 -19.3731 6.20039 -0.820925
12 -19.8637 6.83917 -1.49698
1 -20.3389 6.35809 -2.11738
1 -20.899 5.92428 -2.77535
5 -21.6495 5.87553 -2.13063
8 -22.5964 5.61252 -2.15948
3 -22.5755 6.54057 -2.07302
1 -22.7264 7.36075 -1.53286
15 -22.9443 6.64613 -0.845956
10 -23.7944 6.38806 -1.21694
15 -24.0297 6.74235 -0.31318
6 -24.7573 6.41368 0.276299
6 -24.4623 6.43688 1.26844
15 -23.5828 6.40317 1.52875
15 -22.8611 5.81528 1.06306
6 -23.013 4.82704 0.928633
1 -23.8277 4.76984 1.34333
10 -23.5375 5.38555 2.00899
15 -23.1384 5.44311 2.86678
10 -22.9365 4.53489 2.87441
8 -22.1411 4.23148 3.34507
1 -22.2692 5.15894 3.59059
8 -21.8615 5.51205 4.40198
15 -22.7028 5.91054 4.19239
6 -22.0361 6.4874 4.67319
12 -21.4022 6.40553 3.93009
7 -20.7328 7.02918 4.21761
1 -20.2427 6.64248 5.02485
8 -19.8786 5.76147 5.11835
1 -18.9448 5.61765 5.01534
2 -18.1477 6.03455 5.41161
6 -17.3592 6.525 5.42196
6 -17.4704 6.05532 4.56662
2 -17.0957 5.362 4.01139
9 -16.3836 5.1054 3.39472
7 -16.0572 5.95663 3.63434
6 -15.79 6.90515 3.91622
2 -15.2816 6.98122 3.04737
8 -14.4272 7.20021 2.82402
2 -14.8941 7.02217 1.99013
8 -13.8941 6.72267 1.80561
1 -14.2196 6.57535 0.88217
1 -14.3887 7.50588 0.723636
8 -14.3174 8.00909 1.59888
15 -14.2853 8.26387 2.55392
2 -15.061 8.14445 3.13031
2 -16.0771 7.92267 3.32276
6 -16.8213 7.38731 3.60964
2 -16.371 6.83213 2.87034
9 -16.962 6.05916 2.76415
6 -16.989 6.38354 3.67967
3 -17.8537 6.39639 3.20537
7 -18.6793 6.64984 2.8129
1 -18.4971 7.23359 3.62932
7 -18.698 8.19723 3.37146
6 -17.76 8.131 3.85767
1 -17.1131 8.78661 3.65457
1 -17.1362 9.12167 2.76148
2 -16.205 8.74262 2.59219
2 -15.8099 8.66593 1.74033
1 -15.5163 8.08499 0.917847
2 -16.3502 7.88137 1.42826
6 -16.2377 7.13375 0.864858
2 -16.4644 6.91935 1.82747
7 -17.4171 6.71821 1.50454
1 -17.0231 6.52659 0.659911
7 -17.5842 5.76032 1.05894
3 -17.7725 5.1255 1.71677
9 -17.3609 4.3181 2.09919
1 -17.212 3.85616 1.28292
15 -17.9279 4.09516 0.656794
11 -18.4259 3.49777 1.24142
4 -19.3877 3.52421 1.01109
3 -19.8729 3.36195 1.91547
6 -20.0208 4.28735 1.9407
5 -19.6156 4.93413 2.56363
7 -19.2431 5.78267 2.23411
15 -19.0009 5.11171 1.53585
7 -18.9076 5.9711 1.14961
7 -19.1151 6.73103 1.67517
7 -19.9051 7.2561 1.62105
7 -19.8091 8.22051 1.91412
7 -20.2553 7.62414 2.56333
7 -19.827 7.49465 3.39205
1 -19.7986 7.79336 4.29437
7 -20.15 8.64746 4.03097
7 -20.8397 9.04869 3.42104
1 -20.6812 9.40961 2.5141
7 -20.8511 8.4811 2.52451
7 -21.3582 7.69607 2.49502
15 -22.0074 6.99728 2.46231
7 -21.9088 7.40721 3.36247
1 -22.4051 7.4375 4.13722
16 -22.9377 8.22506 4.07857
3 -23.9044 7.95688 4.12998
1 -23.4909 7.06784 4.23768
15 -23.5075 6.34511 3.6566
3 -23.5033 7.29158 3.21721
15 -23.0798 6.97316 2.43189
10 -22.8642 7.87551 2.23566
1 -22.5652 8.74198 1.82406
1 -22.2107 9.59832 2.14263
14 -22.4915 9.79598 3.03658
7 -22.9103 8.9513 3.09811
1 -23.8063 9.3228 3.0288
3 -24.7442 9.20695 2.87341
10 -24.5262 9.61967 2.02548
6 -24.415 9.39576 1.0038
7 -25.0436 10.1661 0.866427
6 -24.921 9.81604 -0.072539
3 -24.096 10.0704 -0.373403
6 -24.1548 9.11036 -0.33704
3 -23.3234 9.5533 0.0299508
1 -22.9623 8.94861 0.712281
3 -22.9267 9.92098 0.889943
3 -22.9851 10.8215 1.14395
6 -22.5584 11.676 1.0832
3 -22.1263 11.3234 0.303586
3 -22.4506 11.2242 -0.576496
6 -22.3442 11.3997 -1.51184
1 -21.7885 12.0721 -1.92917
5 -22.4329 12.835 -1.84395
5 -22.9308 13.1643 -2.55089
1 -22.9793 12.4516 -3.114
1 -23.6859 11.7171 -3.24316
7 -24.3758 11.9045 -2.57353
1 -24.0662 11.0318 -2.43296
1 -24.4845 10.1901 -2.06554
3 -23.975 10.6444 -1.40941
3 -23.4902 11.2479 -0.828724
1 -23.1297 12.035 -1.42934
6 -23.792 12.6893 -1.15165
1 -23.9892 13.5356 -0.821494
5 -23.0944 13.818 -0.541077
5 -22.1663 13.5437 -0.667093
6 -22.1269 12.8574 0.017656
3 -22.975 12.7549 0.405607
5 -23.9652 12.9487 0.221385
7 -24.4697 12.9163 1.09975
8 -25.3467 13.1386 1.51326
15 -25.9355 12.3796 1.29511
12 -25.9038 11.6539 1.8602
1 -25.0259 11.2873 1.98548
4 -24.0345 11.4093 1.9293
3 -23.8641 11.4116 1.01998
3 -24.2185 11.3196 0.0655898
1 -24.5336 12.197 -0.137227
1 -25.3056 12.4879 0.377844
4 -25.5539 11.4705 0.434253
8 -26.4384 11.6747 0.0085875
1 -26.305 11.2572 -0.907398
1 -25.3705 10.9878 -1.11486
1 -25.6003 10.4931 -0.372975
1 -26.425 9.98117 -0.722138
7 -26.5613 9.08527 -0.35295
6 -26.1502 9.0789 0.487229
6 -27.0306 9.20473 0.887692
7 -27.4398 10.003 1.23724
1 -28.0808 9.56229 0.647757
14 -28.3564 9.5625 -0.295905
10 -27.7509 9.28552 -0.928828
15 -27.2435 8.60573 -1.41275
10 -26.4519 8.125 -1.10922
6 -25.915 8.26644 -0.289843
7 -25.1155 8.05238 -0.88451
6 -24.4029 7.99149 -0.262416
15 -23.6466 8.34739 -0.794707
3 -23.3856 9.14901 -1.24615
1 -22.8171 9.63969 -1.8902
1 -21.9409 9.37646 -1.55002
3 -21.929 10.2048 -1.02619
10 -21.394 10.5905 -1.67045
10 -20.8763 10.0034 -2.3127
10 -20.3145 10.7537 -2.48201
10 -20.4963 11.4698 -1.83418
10 -19.6215 11.4249 -1.36305
10 -19.2059 10.6194 -1.05981
10 -18.4573 10.4286 -1.66982
10 -19.2439 10.5692 -2.0851
10 -19.7968 9.81426 -2.40768
10 -20.4099 9.33327 -1.79658
10 -19.6993 8.68958 -2.02643
10 -18.8119 8.51868 -1.6383
10 -18.3875 8.95649 -0.949461
10 -18.853 9.5911 -0.440075
10 -19.7323 9.92653 -0.480994
10 -20.3998 9.39942 -0.786339
10 -20.6963 10.2749 -0.500497
3 -21.2323 10.4549 0.277841
1 -20.6805 10.2417 1.08659
1 -19.7936 10.0169 1.18035
1 -19.0677 9.63536 0.568585
5 -18.957 8.94885 1.29465
7 -18.921 8.56 2.1929
3 -18.4198 9.04106 2.84947
2 -17.7798 8.43932 2.50964
2 -17.8327 7.54045 2.83373
7 -18.1791 7.22062 1.91502
2 -17.5354 7.87885 1.61645
2 -17.2781 8.30881 0.740455
7 -18.1548 8.00221 0.559942
10 -18.6184 8.14717 -0.248095
7 -19.1069 7.46731 0.238345
7 -19.9214 7.7419 0.677239
10 -20.0465 7.99783 -0.281943
1 -20.6074 7.81887 -0.999716
3 -21.5727 7.72753 -0.825494
15 -22.2128 7.14512 -0.341039
15 -22.3371 7.56753 0.531097
1 -22.4358 8.2676 -0.224312
3 -22.5003 9.21731 -0.431332
16 -21.5087 9.24271 -0.351116
3 -21.9568 9.38758 0.552388
7 -21.3759 8.80718 1.16868
16 -20.9984 8.5555 0.306597
6 -21.0662 7.63125 0.548723
7 -20.7297 6.85659 1.01333
7 -20.7791 6.80485 2.01526
15 -21.5159 6.38717 1.65331
1 -21.9034 5.44746 1.56971
14 -22.3286 4.63786 1.9479
1 -22.4557 3.87256 1.35492
10 -23.3565 3.95275 1.76548
10 -24.1571 3.50259 2.01451
14 -24.1151 3.5388 1.046
1 -23.8732 3.04389 0.203924
8 -24.7432 3.22175 -0.139603
1 -24.7782 2.3333 0.1572
1 -24.5276 1.71584 0.810379
1 -23.8488 1.81729 1.50371
15 -23.8353 1.46656 2.41088
1 -23.5939 2.11322 3.21038
10 -24.2869 2.68697 2.9695
10 -24.4559 2.9939 3.88394
15 -24.8641 3.32817 4.72151
1 -24.8688 2.65051 5.41882
8 -24.4199 2.75973 6.40584
15 -24.6986 3.66435 6.23416
1 -24.0801 3.98582 6.84978
1 -24.2192 4.22044 7.78888
1 -24.2685 4.85101 8.48702
1 -24.8785 4.88031 9.21185
9 -24.543 5.39176 10.0081
8 -25.1932 5.27711 10.7953
2 -25.8133 5.67583 10.1121
15 -26.5464 5.86652 10.6892
1 -27.1908 6.15777 11.2854
2 -26.6466 6.46256 12.0053
1 -26.408 7.12149 12.6492
1 -25.8094 7.89313 12.8641
9 -25.814 8.45027 12.0199
1 -24.9768 8.93391 11.9438
1 -24.2282 8.38185 11.6068
9 -24.6951 7.89213 10.8943
11 -25.4544 8.35896 10.5214
15 -24.8414 9.00037 10.216
3 -25.0121 9.53626 9.49198
1 -25.4703 10.308 9.32917
7 -26.1755 10.5009 8.77113
12 -26.9481 10.988 9.17198
7 -27.1346 10.3202 9.8451
1 -27.8653 10.2501 10.4316
6 -28.4291 10.8949 9.95086
6 -28.1017 10.9687 9.04424
17 -27.9898 11.0128 8.06878
6 -28.7605 10.4361 8.19323
1 -29.137 9.66309 7.6392
7 -30.12 9.60549 7.38373
1 -29.6855 9.31425 6.49848
8 -30.2262 8.79647 5.96895
1 -30.0444 8.91676 5.02644
3 -30.5583 9.2082 4.17181
6 -31.2819 8.78074 4.74843
1 -30.9983 9.53219 5.24216
6 -31.5646 9.91723 5.93789
7 -31.5576 9.82831 7.02202
3 -31.2098 9.08295 6.50968
7 -31.8258 8.75787 7.11129
5 -31.5242 8.10157 6.43182
6 -32.2734 8.62057 5.8916
6 -33.0356 8.82965 5.36761
6 -33.2347 8.77568 6.35403
7 -32.7935 9.23755 7.04189
7 -33.2734 9.60049 7.7799
3 -34.2692 9.6106 7.56516
14 -34.2502 9.53539 6.54011
6 -33.8827 9.46797 5.64597
6 -33.5931 10.3905 5.77514
7 -34.0896 10.9691 6.361
5 -34.8453 10.992 6.93592
1 -35.3667 11.2138 7.71096
9 -35.6754 10.3216 8.15715
6 -34.7984 10.1647 8.4879
1 -34.3612 10.9175 7.96516
7 -33.4085 10.7703 7.82448
1 -33.6274 11.4523 7.21393
7 -32.7104 11.2526 7.20139
7 -32.3679 10.6917 6.38986
6 -32.3815 10.6249 5.38764
1 -32.7932 10.8248 4.53801
6 -32.3038 10.0629 4.15793
14 -31.4755 10.6722 4.13999
1 -30.548 10.5201 4.14921
14 -29.8684 11.1378 4.1939
14 -30.102 11.6564 3.41237
11 -30.506 11.0027 2.7873
1 -31.1764 11.4518 3.2963
14 -31.599 12.0841 3.86342
14 -30.7836 12.5499 3.75043
14 -30.0118 12.9197 3.39087
14 -29.3261 13.1825 3.98808
14 -29.4654 13.1913 4.88012
14 -29.3244 12.3961 5.398
10 -29.1364 11.4522 5.38875
1 -28.3556 11.8207 4.87028
14 -28.8687 11.7462 4.02766
1 -28.0969 11.2742 3.785
5 -27.3036 10.6582 3.91717
7 -27.9696 10.273 3.28011
4 -27.0871 9.80153 3.40529
3 -26.7914 8.91343 3.25629
8 -27.7511 8.95044 3.25592
10 -27.4322 8.86213 4.16931
3 -26.4891 9.19887 4.22374
3 -25.6967 8.65395 4.45811
3 -25.3085 9.58958 4.3479
1 -25.3094 10.4672 4.86002
7 -24.6861 9.7903 5.20995
8 -25.5955 9.83395 5.76157
10 -25.927 10.0276 6.66934
1 -26.8027 9.66237 6.51337
2 -26.5704 9.12152 5.69699
3 -26.6704 8.26019 5.18405
4 -27.5265 7.80136 5.12347
3 -26.9215 7.1288 4.6991
8 -27.4594 6.36176 4.68129
7 -26.7393 5.6496 4.67812
1 -25.7429 5.50539 5.15543
3 -25.9529 6.47069 5.14862
1 -26.4155 5.92122 5.84822
7 -26.7317 6.85527 6.11047
3 -26.0228 7.48864 5.84596
6 -25.1172 7.20367 6.09692
1 -24.6825 6.32869 6.33015
15 -24.2028 6.56026 5.47158
8 -24.4338 7.45701 5.25412
3 -24.8673 7.78405 4.47163
3 -25.3167 6.92089 4.07431
3 -26.2761 7.07132 3.76407
14 -26.8335 7.1713 3.05766
6 -26.6152 7.66153 2.28769
3 -26.1731 8.026 3.0241
3 -25.5604 7.9581 3.72569
3 -25.1404 8.24809 2.87305
6 -25.6552 8.70931 2.16214
1 -25.411 8.68329 1.29352
6 -25.7197 7.93988 0.795271
6 -24.7969 7.83973 0.964564
15 -24.1918 7.24885 0.527534
15 -23.4626 7.41447 1.0774
1 -23.9087 7.73059 1.78659
3 -24.6972 7.4949 2.29723
6 -25.1499 6.65113 2.10556
3 -24.6106 6.48437 2.91042
10 -24.5227 5.5375 2.5512
6 -24.835 5.13283 1.72847
10 -24.9877 4.195 1.96787
15 -25.2892 3.41128 1.58112
9 -25.9102 2.99661 2.13114
10 -25.9384 3.10547 3.19522
9 -26.2834 3.18547 4.14559
7 -26.508 4.13844 3.89758
1 -25.5948 4.01896 3.46819
10 -25.2763 4.65058 2.83048
1 -26.1417 4.48152 2.22238
6 -26.3832 5.29272 1.71903
7 -25.7404 5.56966 2.29663
6 -26.1034 6.51285 1.8616
3 -26.235 6.3564 2.81626
7 -26.3052 5.91172 3.66614
7 -25.3772 5.6525 3.44756
15 -24.5669 5.68209 4.02194
15 -24.3454 5.09847 4.69958
7 -25.0028 4.40254 4.48335
10 -24.447 4.48746 3.60656
10 -23.7376 3.90489 3.31545
15 -23.5427 4.09725 4.26679
8 -22.6663 3.43975 4.27443
1 -23.0772 2.59711 4.41367
7 -22.7588 1.69297 4.58915
1 -21.9285 1.4046 5.11303
15 -21.7829 2.02295 5.91262
6 -21.2994 2.67186 5.25011
2 -20.6535 3.34506 5.20284
8 -21.106 4.13283 4.94299
8 -21.835 3.51009 5.14462
1 -22.7862 3.39156 5.3813
15 -23.6875 3.13899 5.39296
13 -23.3169 3.53301 6.26718
15 -23.4689 4.44002 5.95812
8 -22.6339 4.36113 5.43058
15 -23.3644 4.73531 4.92332
15 -22.8104 5.40893 5.23863
8 -21.925 5.06505 5.32733
1 -22.1717 5.96222 5.6879
15 -23.0935 6.30252 5.64219
1 -23.067 7.16844 6.05764
1 -23.0982 7.35509 7.08727
5 -22.3718 7.80698 6.75027
1 -21.6965 8.21435 6.25922
1 -21.7373 7.96147 5.36039
1 -20.9873 8.17542 4.80299
7 -21.7709 8.16989 4.2388
7 -21.9988 9.07549 4.1219
12 -22.8416 9.28856 4.49352
12 -23.1391 10.1459 4.3079
1 -23.4125 10.9242 4.84643
1 -23.3427 11.035 5.83224
12 -24.2158 11.1779 6.28718
1 -24.6873 10.8483 7.14266
1 -25.6773 10.9467 7.12548
1 -26.5614 10.9374 6.82145
1 -26.9314 11.819 7.04811
1 -27.7166 11.3267 6.70102
1 -28.3545 10.6159 6.59771
3 -29.3207 10.5694 6.46232
5 -29.6613 10.5027 7.37289
6 -29.9014 10.8979 8.1924
7 -30.4652 10.0997 8.32808
6 -29.7095 9.83981 8.87477
2 -29.8131 8.97861 9.39258
3 -28.9164 8.97855 9.74156
1 -28.7442 8.81752 8.87047
5 -28.5813 7.90812 8.6675
13 -28.2284 8.00859 9.53632
14 -28.608 7.1116 9.95766
2 -29.2909 7.84949 10.0103
2 -29.8116 7.75477 10.8203
1 -28.8972 7.74105 10.8774
9 -28.7025 8.53504 11.4672
2 -29.6242 8.87016 11.6931
1 -29.1861 9.52353 12.25
1 -28.3343 9.64483 11.8026
1 -28.8446 10.2181 11.2725
2 -29.6268 9.89504 10.8131
6 -29.5776 10.0604 9.88616
1 -30.3883 10.3839 10.2073
2 -30.5698 9.42806 10.4128
2 -30.6886 8.73526 11.094
1 -30.4249 8.28995 11.9939
1 -30.1804 8.04915 12.9242
1 -29.6349 8.81415 12.9792
7 -30.3761 9.45201 12.6281
15 -30.6379 9.59259 13.5148
3 -31.3381 9.84425 12.9056
2 -31.4587 9.41876 12.0885
10 -31.3832 8.61264 12.6387
9 -32.1853 8.10856 12.9565
15 -32.4653 7.54782 12.2
10 -31.7546 8.03686 11.7254
2 -32.2536 8.52593 11.032
1 -33.0432 7.95134 11.1607
1 -33.7047 8.62264 11.4748
10 -33.3367 8.17113 12.2876
6 -33.3257 8.91189 12.8936
10 -32.8058 9.69871 12.8594
11 -32.8743 10.4456 12.2256
15 -31.9682 10.6874 12.5998
9 -31.1709 10.5172 12.0109
2 -31.1339 10.4243 11.0213
7 -32.0446 10.2052 11.3773
10 -32.7308 9.53316 11.4577
15 -32.9411 10.2255 10.7396
7 -32.8751 9.85751 9.75539
2 -32.4832 9.15543 10.2406
1 -33.3601 8.56248 10.3593
1 -33.735 7.70883 10.2409
15 -33.4111 7.20586 9.45988
6 -33.1297 6.43268 8.90945
5 -34.029 6.5676 8.69208
8 -34.6796 7.26252 8.57938
8 -34.4364 8.13175 8.24856
1 -33.7081 8.76567 8.45364
7 -32.9196 9.11681 8.8379
2 -32.0222 9.10074 9.2606
7 -31.6746 8.52643 8.50492
4 -32.3001 7.81627 8.84081
3 -31.6405 7.33184 8.32504
15 -31.638 7.56372 7.38795
7 -32.5121 7.19759 7.64331
15 -33.2422 6.60725 7.71376
15 -33.4021 7.0761 6.89643
6 -33.9741 7.89218 6.68886
8 -34.8894 8.14026 7.01633
15 -35.2619 9.03472 7.47413
8 -36.0265 8.44051 7.13897
15 -36.2171 8.96647 6.36625
8 -35.6687 8.21993 6.16815
5 -35.0903 9.04215 6.10962
6 -35.0092 8.64224 5.21808
7 -34.8777 9.66344 5.32169
6 -34.2464 10.0328 4.6296
2 -34.1468 10.5706 3.89586
1 -33.2281 10.186 3.62036
1 -33.6066 9.27103 3.75677
6 -32.8887 8.98032 4.34934
1 -32.0849 8.96874 3.76722
7 -31.8927 8.56287 2.95234
13 -32.2956 9.4094 2.70185
10 -32.6364 8.62654 2.24598
7 -33.5271 9.01893 2.02718
1 -34.3288 8.60079 2.41218
1 -33.6195 8.34883 3.11521
1 -33.3834 7.69579 3.79819
6 -33.3642 7.90523 4.8605
6 -34.2724 7.7621 4.64322
9 -34.8522 7.1333 5.22395
8 -35.449 6.74913 5.87981
8 -34.7633 7.00255 6.46293
6 -33.9663 7.03606 5.79863
3 -33.3559 6.47696 5.21809
1 -32.5443 6.99806 5.29607
6 -31.8148 7.24533 4.59088
8 -32.1268 6.34533 4.50998
16 -32.1558 5.41845 4.92194
1 -32.5319 4.571 4.66235
1 -33.1263 4.82323 5.51182
3 -33.2643 4.48726 6.41599
10 -33.9211 5.0957 6.29996
1 -33.4409 5.08496 7.1624
3 -34.2687 5.50839 7.26147
7 -34.9628 5.97396 7.72137
8 -35.3113 6.87849 7.77574
1 -35.8654 6.86543 8.54801
8 -36.3273 7.21309 7.7705
16 -36.9265 7.35711 8.60681
1 -36.9898 8.2 9.08054
1 -36.549 9.10298 8.90956
9 -35.8729 9.69185 9.25177
1 -35.1739 10.2519 9.574
1 -34.2453 10.6227 9.80759
1 -34.1353 11.2392 9.006
7 -33.116 11.1562 8.87968
3 -32.4314 11.8493 9.15756
3 -32.7567 12.5571 9.67942
16 -33.1139 13.4317 9.66411
1 -33.7862 14.0563 9.52289
1 -33.2747 14.9424 9.63297
15 -33.4262 15.6868 8.99973
7 -33.4575 16.5444 8.61704
16 -33.2463 17.5096 8.6853
16 -32.4122 17.6318 8.28484
1 -32.6607 16.8326 7.74739
15 -31.7785 16.5519 7.406
15 -30.9314 16.272 7.74248
1 -30.3853 15.8508 8.41225
2 -29.7321 15.0633 8.42214
3 -29.4704 14.1334 8.3502
1 -29.4785 13.2983 7.78613
6 -29.4327 12.5204 8.43516
2 -28.5548 12.6117 9.02634
6 -28.7969 11.8249 9.49107
15 -28.7868 11.7346 10.4778
6 -29.5963 12.1753 10.6937
3 -30.0383 13.0765 10.5747
1 -29.5701 13.663 9.84286
15 -28.8362 14.2193 9.35466
3 -29.0006 15.2076 9.41351
3 -29.8573 15.5532 9.69642
9 -30.3984 16.0516 10.3395
1 -30.7432 15.1795 10.4894
9 -30.879 14.1297 10.5273
3 -31.1636 14.0133 9.59385
3 -30.7156 13.5263 8.91896
1 -30.4487 12.6119 8.79846
6 -29.9449 11.7333 9.06056
3 -30.7138 11.9372 9.54031
6 -30.5458 11.6235 10.4086
3 -30.9728 12.3711 10.8071
13 -30.6498 12.8616 11.5639
15 -31.3256 13.5262 11.3881
3 -31.8123 13.2733 10.5813
15 -32.3699 12.945 11.3019
12 -32.2794 12.1091 11.7964
8 -31.9557 11.6268 10.9883
3 -32.323 11.362 10.1657
7 -32.1187 10.6207 9.60095
2 -31.5867 9.82387 9.88796
6 -31.2476 10.0542 9.08008
7 -31.482 10.2406 8.18281
15 -31.3253 11.0608 8.7281
7 -32.1805 11.1143 8.22456
1 -31.6174 11.9127 8.42741
3 -31.5315 12.7127 8.97374
3 -32.0016 13.2729 9.54193
1 -32.3152 14.2427 9.44405
3 -32.9413 13.98 8.78408
13 -33.5243 14.1895 8.13184
12 -33.1758 14.6257 7.34105
15 -32.2033 14.5581 7.06871
3 -32.1315 13.6925 7.53376
15 -32.5348 13.6753 6.62884
12 -33.2042 13.1394 7.05485
7 -32.7573 12.2622 7.01237
7 -32.0356 11.997 7.52907
3 -31.6775 12.8109 7.91465
12 -30.9186 12.8845 7.28511
14 -30.8961 13.4706 6.56097
9 -30.407 14.2592 6.88487
15 -30.5099 15.0982 7.3015
1 -29.8941 15.9225 7.44007
9 -29.2137 16.5796 7.53889
3 -29.8983 17.1875 7.18735
1 -30.2944 17.8542 6.59336
7 -29.7402 18.3877 7.11842
14 -28.9311 18.9466 7.17267
1 -28.6227 19.3767 6.35947
1 -29.3172 19.1394 5.76134
15 -29.4496 18.3608 5.25168
6 -29.7764 17.6746 4.62587
9 -29.176 17.8292 3.85589
3 -29.8961 18.4306 3.83046
9 -30.3086 18.2985 2.90806
7 -31.1096 18.0293 2.34725
1 -30.622 17.4434 1.75957
9 -29.9437 17.3356 2.47869
7 -30.5564 16.5375 2.59337
9 -30.2725 17.0067 3.41136
7 -31.2239 17.2364 3.14576
1 -31.0743 17.4003 4.09642
1 -31.3109 18.1286 4.74437
9 -30.9572 17.7663 5.60394
15 -31.201 16.9227 6.01297
15 -30.4078 16.3772 5.88082
6 -29.4541 16.7826 5.88964
15 -28.5981 16.6667 6.27968
9 -28.498 15.8088 6.70275
1 -27.8513 15.5517 7.36445
1 -27.6017 16.1195 8.11989
1 -26.6394 16.0002 8.33288
9 -27.2395 15.3281 8.6047
7 -26.928 14.6089 9.06665
2 -26.9599 14.8102 10.0426
1 -27.6681 14.1108 10.175
5 -28.4434 14.7711 10.3324
3 -27.9441 15.5221 10.0926
5 -28.6 15.7549 10.7388
9 -29.3176 16.3419 10.878
5 -29.768 15.3965 11.0759
15 -29.7064 14.6646 10.3705
1 -30.2418 14.4327 9.59528
1 -30.6013 14.5427 8.75211
5 -31.2733 15.1459 8.78184
1 -32.2532 15.4777 8.71671
15 -32.5023 15.794 7.8585
8 -33.3251 16.0003 7.37915
8 -34.2662 16.2984 7.14007
1 -34.7592 16.5488 7.96092
15 -34.6314 17.305 8.59641
1 -35.1107 16.6897 9.07874
1 -35.4748 15.7331 9.04064
5 -36.3668 16.0617 9.07914
5 -36.242 16.5488 8.26275
8 -35.8884 15.8391 7.69072
9 -36.4292 15.0168 7.7071
1 -36.299 15.266 6.7793
1 -36.1604 14.4374 6.3045
1 -35.2805 13.9698 6.2506
8 -34.8237 14.7262 6.77372
15 -34.075 14.3381 6.20268
15 -33.7745 15.0348 5.53144
1 -34.6356 15.4282 5.86705
8 -34.3244 16.2731 6.1364
1 -33.7924 16.0585 5.32669
8 -33.1684 15.6882 5.91433
15 -32.3556 15.4434 5.45027
15 -31.7291 15.0168 4.91532
14 -31.1723 14.2345 4.56663
14 -31.0774 13.6059 5.22077
15 -30.9253 14.5539 5.50642
14 -30.1484 14.0702 5.24548
8 -29.4117 13.7992 5.91925
1 -28.723 13.4365 6.5195
8 -29.2181 12.7072 6.86425
15 -29.4449 11.762 6.66141
14 -30.2387 12.2604 6.51172
7 -30.9087 11.6883 6.89526
7 -31.0258 10.9382 6.32658
14 -31.0699 11.4608 5.52179
14 -30.3082 11.9976 5.37102
14 -30.766 12.7059 4.80767
14 -31.6025 12.2522 4.8947
7 -32.2901 11.6864 5.34827
15 -33.0148 12.3624 5.12106
7 -32.6193 12.5436 5.90989
14 -31.9971 13.0702 5.42656
15 -32.7097 13.6563 5.6937
1 -33.5116 13.9313 5.30287
15 -32.7959 14.575 5.10087
14 -32.1748 14.0392 4.7461
16 -32.3729 14.6809 4.11092
7 -32.0008 15.6075 4.08331
1 -32.9369 16.0007 4.28781
6 -32.7562 16.8142 4.75486
15 -32.1173 16.5021 5.41098
1 -32.207 16.3883 6.34191
15 -32.0617 15.4594 6.45879
15 -31.1851 14.9139 6.45505
15 -30.3399 15.3065 6.12317
6 -30.3318 15.6694 5.19812
7 -30.6321 15.7503 4.30919
6 -29.6644 15.3918 4.3925
1 -29.8074 14.7515 3.68219
7 -30.3497 15.4051 3.31909
6 -29.6407 16.0735 3.55537
9 -29.3594 15.9435 2.66481
1 -29.6264 15.2254 2.13918
7 -30.332 14.6064 1.87417
1 -30.1645 13.7721 2.34345
1 -31.0863 13.4496 2.56853
14 -31.0264 13.9605 3.49126
7 -31.3413 14.9057 3.26496
9 -32.1965 14.6358 3.05509
13 -32.9195 14.8801 2.49782
1 -32.2998 15.2773 1.90002
7 -31.809 15.9493 2.29102
1 -32.6294 15.9307 2.82591
7 -32.1033 16.6736 2.9809
3 -32.7474 16.991 3.62621
1 -33.6541 17.0296 3.99515
3 -33.4429 17.7628 3.33781
1 -33.1343 17.2082 2.56448
9 -32.7591 18.1435 2.43165
7 -32.32 17.6859 1.64959
3 -32.0424 17.3422 0.796767
1 -32.6842 17.8143 0.261293
1 -33.159 17.8526 1.05187
3 -34.0853 17.6234 1.31653
1 -34.2586 16.7712 0.757361
1 -34.749 15.9955 0.9158
1 -34.7307 15.7228 -0.0432298
3 -34.0568 15.645 -0.828593
1 -33.2655 15.2386 -0.429247
6 -32.7223 15.8276 -0.872019
7 -32.4604 16.4669 -0.131872
1 -31.8034 15.7419 -0.0354894
1 -30.8931 15.5837 -0.458812
1 -30.591 16.3861 0.0536546
6 -31.2706 16.6371 0.703261
7 -30.8289 16.254 1.43713
1 -30.01 16.6907 1.30499
15 -29.0739 16.5076 1.52926
9 -28.7155 17.2052 2.096
9 -28.2212 17.5103 2.85148
1 -27.7077 17.0204 3.4677
15 -27.644 16.528 4.3454
9 -28.4698 17.0209 4.10925
6 -28.6199 16.6386 4.98479
6 -28.6897 15.8017 4.44905
1 -28.2889 15.8686 3.59199
9 -28.0883 16.3594 2.79694
9 -27.2406 15.901 2.47143
6 -27.095 15.3201 1.73822
1 -27.2985 14.4052 1.85671
8 -26.3087 14.372 1.77809
1 -25.5392 14.5626 1.28423
3 -24.7373 14.65 1.70047
3 -23.8696 14.5458 1.9984
8 -24.5044 14.184 2.62996
8 -24.6141 13.3063 2.36387
8 -25.325 12.6999 2.49067
8 -26.0288 12.9612 3.04374
1 -26.8319 12.703 2.60318
8 -26.7106 13.639 2.72733
8 -26.1814 13.7984 3.48708
15 -26.6851 13.0486 3.79223
8 -25.7658 13.0182 4.12945
9 -25.3833 12.1542 4.23668
1 -24.6091 12.6903 3.85919
8 -24.5921 13.4698 4.47395
8 -24.2881 14.1666 3.80837
3 -23.8787 15.0661 3.57466
16 -23.7942 15.443 4.47058
8 -24.6666 14.947 4.50596
16 -25.1373 15.3886 5.2713
15 -25.5785 16.2916 5.15948
15 -25.6416 16.5053 4.1168
1 -25.6966 15.5201 4.32528
8 -26.2741 14.7851 3.94591
15 -27.1238 15.2179 4.16807
2 -26.9072 14.4836 4.78239
12 -27.4488 14.137 5.43398
1 -28.3291 13.9488 5.29141
6 -28.8397 14.7341 5.22613
1 -28.279 14.8004 4.44145
1 -27.7491 15.4536 4.96689
15 -27.2207 16.0668 5.51432
15 -26.3122 15.6313 5.63314
1 -25.7692 15.136 6.28802
16 -25.3848 15.6094 7.15538
15 -26.1549 16.0605 6.85077
1 -25.4671 16.6256 6.42373
15 -25.5341 17.3053 5.73248
15 -24.8152 17.8508 5.57441
16 -24.4934 16.9391 5.79064
1 -24.6714 17.2837 6.72181
1 -25.3458 17.8866 7.19191
15 -26.1306 17.5096 6.71318
6 -26.2348 18.4942 6.6139
15 -26.4187 18.9238 5.74566
1 -26.0154 19.5925 6.30007
6 -25.1881 19.2119 6.70263
15 -25.0327 18.8503 5.77995
1 -24.1069 18.8298 5.27273
5 -23.5012 19.1417 4.67587
7 -22.8021 18.5024 4.78617
5 -22.3738 18.8871 4.01189
12 -21.6004 18.62 3.41978
2 -20.7712 18.5328 3.93477
3 -21.4118 19.0933 4.40535
5 -21.8724 19.8866 4.0017
5 -22.1528 20.6067 4.48197
3 -22.3044 21.1284 5.26998
1 -21.8439 21.9779 5.20254
7 -22.0654 22.3388 4.32582
15 -22.7943 21.7272 4.51594
5 -23.3254 21.0032 3.93698
9 -23.9453 21.045 4.68703
5 -23.4812 20.2532 4.99831
9 -24.2993 20.5555 5.55993
1 -24.7665 19.747 5.32722
15 -25.432 19.2422 4.79871
7 -25.0841 19.7606 3.998
9 -24.7304 20.5928 4.02785
7 -24.6923 20.384 3.07993
5 -24.3421 19.5145 2.99804
1 -24.8799 18.9108 2.39047
3 -24.43 18.0296 2.32127
7 -24.0823 18.328 3.26561
5 -24.2214 18.8984 4.05434
15 -24.8721 18.2088 4.34605
7 -25.1226 18.7332 3.59828
15 -25.9559 18.6462 4.04998
2 -26.7414 19.2105 3.83769
7 -27.0327 19.0345 2.95951
9 -27.4304 18.1573 2.92861
15 -26.5372 17.8809 3.25083
1 -26.1915 18.3614 2.44703
9 -26.7584 17.8462 1.9062
7 -26.0307 17.1566 1.92274
3 -25.6532 16.5084 1.40614
3 -25.0975 15.7863 1.91423
8 -25.4879 14.9358 2.30574
8 -25.2614 14.5899 3.18725
3 -25.0635 15.439 3.56378
3 -25.1723 16.1737 2.92469
8 -26.0989 15.763 2.53658
15 -26.3986 15.9939 3.46028
9 -26.7977 16.6607 2.97
15 -25.84 16.9081 3.1291
14 -25.309 17.6952 3.042
15 -24.6012 17.503 3.6639
3 -24.2136 17.1553 2.87757
3 -24.1657 16.3218 2.46584
3 -23.4498 15.6925 2.83154
1 -22.5156 15.4986 2.85666
9 -21.8562 15.4854 3.59877
9 -22.7204 15.5152 3.92369
3 -23.1144 16.3486 3.71348
3 -23.4427 17.2311 3.60907
1 -23.7609 17.4095 4.48095
9 -22.7697 17.3011 4.63123
9 -21.8065 17.3057 4.74432
1 -21.713 17.4638 3.78467
3 -22.4847 17.3543 3.31757
3 -22.3487 17.5399 2.36327
12 -21.6247 17.029 2.78743
8 -21.7902 16.1592 2.45254
1 -21.3037 15.4043 2.2073
1 -21.2372 14.9442 1.36781
1 -22.1182 15.1395 1.12214
7 -22.6095 15.3938 0.351146
9 -22.8448 16.0202 1.04858
3 -23.4268 16.5267 1.62486
3 -23.9199 17.2704 1.90957
3 -23.0421 17.4195 1.58851
1 -22.3417 16.7127 1.6077
12 -21.5394 17.2208 1.73493
9 -21.3583 16.9787 0.759958
9 -20.5088 17.2636 1.19649
12 -20.702 18.061 1.67376
3 -21.2846 18.7994 1.27978
2 -21.6612 19.6911 1.44005
1 -21.2505 20.3336 1.9463
1 -20.9687 20.7449 2.83227
5 -21.3135 21.2192 3.53892
1 -20.4104 21.4911 3.58926
15 -20.8159 22.3664 3.65423
1 -19.905 22.6586 3.57682
8 -20.2303 23.4956 3.25811
4 -20.052 23.9687 2.40558
4 -20.3982 24.7195 1.92897
1 -19.6119 25.2439 1.97042
9 -19.3005 25.6798 2.81618
7 -18.7178 25.3844 3.54959
6 -18.0133 25.9366 3.81551
13 -17.8369 25.3865 3.00209
7 -18.0568 24.883 2.14954
8 -18.1256 24.1841 1.40194
1 -18.3377 24.8299 0.719569
7 -19.3078 24.6801 0.774822
1 -20.0783 25.2157 0.421968
1 -20.9053 24.8083 0.0875403
1 -21.1381 24.2053 0.82806
1 -21.8367 23.9726 0.301061
12 -22.3428 24.0485 1.11322
8 -22.5491 23.0393 1.06638
1 -21.698 23.1408 1.53309
8 -22.1025 22.723 2.25333
7 -21.7931 22.7881 3.15845
7 -21.3866 23.7544 3.2327
1 -21.3233 24.4268 2.58151
1 -22.1591 24.521 3.0893
7 -22.9436 24.4173 3.51238
7 -23.2753 23.8877 4.23792
14 -24.2155 23.9332 4.29416
14 -24.466 23.2071 4.93214
9 -24.5471 22.2193 4.91181
14 -25.4102 22.6401 4.86612
3 -25.3376 22.091 5.66087
9 -26.0861 21.4898 5.42699
6 -25.9797 21.5318 6.39135
1 -26.8785 21.0692 6.4186
7 -27.5102 20.3926 6.45832
4 -27.5078 19.4598 6.10649
15 -27.336 18.5255 6.29469
14 -27.9023 18.5755 7.15765
1 -27.7905 17.6433 6.99066
15 -27.3716 17.1483 6.29488
7 -28.1306 17.5523 5.75056
9 -27.8084 17.539 4.82063
15 -27.0854 17.0435 5.16024
15 -26.1573 17.0987 4.90521
15 -26.694 17.8376 4.6809
9 -27.33 18.5138 4.56388
11 -27.5543 19.4501 4.71038
11 -28.4189 19.3644 4.25207
3 -28.9429 19.3671 3.44999
9 -28.2943 18.7455 3.1087
11 -28.0058 19.6087 2.8975
11 -27.1675 20.1257 2.80709
1 -27.0214 19.8921 1.82532
8 -27.3355 19.1731 1.32929
9 -28.0063 18.5661 0.996184
15 -27.6464 19.0099 0.176358
15 -27.0129 18.9538 -0.526516