1386
Atoms. Timestep: 71000000
6 -8.637534 0.789173 7.364622 
1 -8.145734 1.617273 7.496322 
9 -7.319934 1.849173 6.839322 
10 -7.003034 1.001473 6.472222 
1 -6.158334 0.441373 6.692322 
15 -5.287334 0.627573 6.342222 
3 -5.933434 1.408973 6.540322 
2 -5.918634 1.262273 5.584722 
15 -5.096934 0.851173 5.306322 
5 -4.725934 1.732073 5.048222 
14 -4.895134 2.079973 5.886522 
13 -4.892234 2.267073 6.836422 
1 -5.297434 1.605573 7.441422 
3 -4.954734 0.811973 7.879022 
10 -4.520734 -0.072427 8.060322 
11 -4.820634 -0.488527 7.242622 
15 -4.534334 -0.629127 6.364322 
17 -3.859834 -1.292327 5.975122 
9 -3.099934 -1.741627 5.549622 
14 -3.877334 -2.330027 5.751522 
16 -3.235934 -2.491027 6.493222 
2 -3.475834 -3.401327 6.902822 
16 -2.710234 -3.702327 6.446522 
17 -3.318634 -4.444227 6.697322 
1 -4.165534 -4.714527 6.246722 
14 -3.958534 -3.800027 5.929922 
9 -3.119034 -3.965927 5.475922 
3 -2.388234 -4.588027 5.193522 
2 -3.273134 -4.933927 4.975622 
1 -3.123134 -5.947327 5.002122 
4 -3.201834 -6.902427 5.154522 
3 -4.136534 -6.693027 5.008822 
1 -4.271734 -6.585727 4.053822 
12 -3.603434 -7.098127 3.617722 
14 -3.137934 -7.122827 2.802522 
9 -3.070334 -6.133227 2.967922 
2 -3.067234 -5.419127 3.686622 
3 -2.380134 -5.190527 4.297422 
16 -1.780734 -5.535127 3.700722 
16 -1.317134 -4.834227 4.112122 
3 -1.253534 -4.468127 5.051322 
16 -1.633934 -3.739327 4.465622 
1 -2.554034 -3.327627 4.463322 
16 -1.904934 -3.310227 3.617922 
9 -2.353734 -2.494027 3.816822 
2 -3.093834 -3.118727 3.586122 
16 -2.748734 -3.697327 2.945122 
17 -3.527434 -3.643527 2.369622 
1 -3.316434 -4.477227 1.938922 
1 -2.627734 -4.155227 1.311922 
5 -1.754134 -3.921727 1.564722 
16 -1.479634 -4.226227 2.428222 
16 -1.188134 -5.000827 2.916722 
9 -1.553434 -5.861427 2.657122 
1 -1.409434 -6.496927 3.288822 
12 -0.966034 -6.489927 4.213022 
4 -0.769534 -6.610227 5.136722 
3 -0.613534 -5.666227 5.212822 
16 -0.278334 -5.157327 4.514522 
16 -0.069734 -4.737227 3.643622 
13 0.913866 -4.767827 3.957122 
12 0.904166 -5.807127 3.739822 
17 1.690966 -6.389227 4.039222 
8 1.417366 -7.343027 3.860322 
8 1.101966 -8.157927 4.279322 
4 0.837166 -7.595827 4.972522 
1 0.618166 -6.738827 5.373522 
17 1.509666 -6.358227 5.625222 
13 1.308966 -6.079927 6.498722 
1 0.841266 -6.910427 6.457622 
1 1.678066 -7.340927 6.673022 
1 1.594866 -8.288927 6.878022 
1 2.187466 -8.172827 6.105122 
7 2.606666 -8.031727 5.262522 
8 2.465266 -7.347127 4.591422 
1 3.060966 -7.068227 5.244622 
12 2.682066 -6.664827 6.007922 
1 2.473666 -5.684227 5.957622 
1 2.408366 -4.993427 6.819622 
11 1.833166 -4.478627 6.055322 
7 1.024766 -4.257227 5.608322 
1 0.761366 -3.661327 6.317922 
3 -0.012034 -3.924427 5.848322 
16 0.103566 -3.375327 5.140322 
3 0.094366 -2.799127 5.865522 
1 0.440766 -1.987627 5.434922 
1 0.739166 -1.305227 6.081422 
12 -0.033734 -0.563827 6.137122 
3 -0.748334 -1.161627 5.890322 
9 -1.548934 -1.570827 6.463022 
3 -0.918934 -2.211827 6.781822 
8 -0.719634 -1.832227 7.702922 
1 -0.247134 -2.654227 7.890522 
7 0.399766 -3.133827 7.234622 
1 0.611966 -4.127727 7.246122 
3 -0.284234 -4.340127 6.937622 
3 -0.208334 -5.254727 6.863622 
1 0.390166 -5.833227 6.393022 
7 -0.331434 -6.497827 6.234522 
6 -1.011734 -6.301727 6.882622 
3 -1.319034 -5.755927 6.134822 
8 -2.008034 -6.308527 6.512222 
12 -2.529934 -6.032327 5.800322 
9 -2.750434 -5.164927 6.040422 
3 -1.797634 -4.787427 6.006422 
3 -1.326834 -4.013227 6.332022 
13 -1.845034 -3.560127 7.056122 
3 -1.547834 -3.031427 6.384022 
1 -2.234234 -2.373227 6.688922 
3 -2.040234 -2.389927 5.764322 
9 -2.103734 -1.904027 4.972222 
3 -1.587834 -2.701327 4.819422 
16 -0.952134 -3.064827 4.194922 
3 -0.453134 -2.559727 4.761922 
5 0.041766 -2.038227 4.054022 
15 -0.580134 -2.125927 3.342022 
14 -0.084834 -2.519727 2.544722 
16 -0.661134 -3.199527 2.765122 
1 -1.493734 -2.733927 2.682722 
3 -1.775634 -2.401227 1.875422 
17 -2.583734 -2.263727 2.370322 
13 -2.994734 -1.830327 3.122122 
9 -2.996734 -1.063527 3.670322 
12 -3.362834 -0.808227 2.809522 
4 -4.324134 -1.132627 2.613122 
1 -5.236134 -0.818327 2.455622 
6 -5.883834 -0.404527 3.103922 
3 -5.803334 -0.963727 3.854422 
15 -5.553734 -0.239427 4.316722 
16 -6.519934 -0.217627 4.288722 
9 -7.246534 0.179173 4.671622 
3 -7.646934 -0.460627 4.144122 
16 -7.677134 -1.136827 4.822922 
1 -6.796234 -1.022927 5.322522 
15 -5.784834 -1.016627 5.032922 
15 -5.632634 -0.940927 6.002022 
6 -5.858634 -1.934827 6.063022 
14 -5.495534 -2.542127 5.434822 
14 -5.589034 -3.442827 5.678822 
1 -6.408034 -3.679827 6.155422 
1 -6.788434 -4.556427 6.069922 
17 -6.627034 -4.187027 5.151722 
14 -5.648834 -4.034427 4.967422 
5 -5.086334 -4.373627 4.215522 
15 -4.726534 -4.519927 5.134022 
2 -3.941434 -4.042527 4.809222 
14 -4.206634 -3.308627 4.189122 
9 -4.142034 -2.326527 4.206722 
1 -5.069734 -1.885127 4.267722 
16 -6.112334 -1.855527 4.207322 
14 -6.119734 -2.690927 3.754422 
1 -6.714234 -2.094027 3.264822 
16 -7.627134 -2.211727 3.444922 
9 -8.111634 -2.703627 2.763122 
7 -7.378534 -2.479827 2.151222 
6 -7.910034 -1.702427 1.959922 
15 -8.656534 -1.131827 1.658322 
1 -7.858434 -0.654827 1.400122 
1 -7.415434 -0.525227 0.582322 
1 -6.590034 -0.565327 1.020922 
7 -6.939534 -1.333527 1.434122 
1 -7.608334 -1.809527 0.966722 
1 -7.842934 -1.415227 0.040522 
2 -8.054834 -0.748627 -0.691478 
11 -7.605134 -0.110827 -1.318078 
4 -6.639534 -0.105327 -1.597078 
9 -6.113834 0.720773 -1.656778 
3 -5.321434 0.957573 -2.222278 
11 -4.392034 0.988673 -2.111178 
16 -4.832134 0.612773 -1.292378 
2 -4.433834 1.168573 -0.613178 
2 -5.270334 1.432773 -0.233678 
1 -5.421934 0.492973 -0.384178 
10 -5.542234 -0.093127 0.343622 
1 -4.618334 -0.381327 0.395422 
12 -4.523234 -1.035027 1.037922 
4 -5.478434 -1.098627 0.836122 
7 -5.718034 -1.837327 1.338122 
17 -5.475134 -2.152927 0.514322 
1 -5.609934 -1.848127 -0.465878 
1 -5.298434 -2.793627 -0.466978 
4 -5.399934 -3.616427 0.011922 
2 -4.615934 -3.973827 -0.472678 
3 -3.788634 -3.425527 -0.247878 
11 -3.813734 -4.109227 0.482822 
17 -3.679734 -3.401127 1.069522 
2 -3.507334 -2.705927 0.477722 
1 -2.713234 -2.237527 0.762022 
1 -2.219734 -1.615727 1.186322 
12 -2.758434 -0.940327 1.616822 
5 -3.373534 -1.595027 1.916622 
17 -3.736034 -2.445227 1.661622 
17 -4.492034 -2.185327 2.229622 
1 -5.292034 -2.735327 2.328022 
17 -4.610634 -2.974627 2.997122 
5 -4.481934 -3.870627 3.311422 
2 -3.715134 -4.437727 3.108722 
5 -3.979834 -5.306627 2.623222 
12 -4.831234 -5.704327 2.698822 
1 -5.320634 -5.935327 1.911622 
4 -5.371334 -5.183027 1.293822 
1 -5.865134 -4.370727 1.322222 
17 -5.668834 -3.374827 1.609422 
7 -6.324234 -3.061927 2.277222 
1 -6.749334 -3.362527 3.100922 
14 -6.090434 -3.695727 3.757422 
5 -5.822534 -4.562127 3.287422 
3 -5.933434 -5.442027 3.758822 
5 -5.050634 -5.879827 3.834522 
6 -5.262734 -6.583327 3.287622 
13 -5.158834 -6.882527 2.363122 
1 -5.502834 -7.709327 1.947422 
14 -4.836534 -7.877427 1.300622 
13 -4.951334 -7.143527 0.757122 
7 -4.291734 -7.834327 0.406822 
5 -3.338734 -7.932427 0.544722 
17 -2.687534 -8.260427 1.123822 
3 -2.134934 -7.673127 0.542022 
1 -1.381134 -8.017027 1.023522 
10 -1.306334 -7.556427 1.933422 
1 -0.971834 -6.643927 2.053422 
1 -0.204134 -6.371527 2.626122 
16 -0.058134 -5.316927 2.795122 
17 0.826266 -5.704327 2.616722 
10 1.640266 -5.624127 2.121922 
10 0.919266 -5.628527 1.492322 
16 0.334066 -4.950427 1.919322 
1 1.112766 -4.499327 1.544622 
1 0.799666 -4.249227 0.646622 
6 0.176566 -4.927227 0.393022 
13 -0.636134 -4.721027 0.874722 
16 -0.692434 -3.974227 1.488622 
1 -0.357934 -3.755927 0.612122 
1 -0.623334 -3.739627 -0.321378 
6 0.155766 -4.189327 -0.684478 
3 0.764766 -3.545427 -0.200178 
7 1.443766 -3.255527 0.446722 
13 0.676766 -3.006827 1.050322 
7 1.256666 -3.335627 1.870922 
16 0.400266 -3.798627 1.992622 
11 0.571566 -3.236427 2.754222 
16 0.057866 -3.696527 3.407422 
9 0.569366 -3.039027 3.936322 
13 1.152266 -3.682227 4.343822 
1 1.966566 -3.528927 3.862022 
9 1.960666 -2.801527 3.170222 
6 1.431866 -2.494527 3.947122 
1 1.059466 -2.182327 3.114722 
1 1.820466 -1.553827 2.846222 
7 2.192966 -2.114327 2.162622 
7 1.624566 -2.039127 1.367422 
15 0.990466 -1.573827 1.838422 
12 0.610166 -1.847127 1.025922 
16 -0.054134 -1.681127 1.660622 
1 -0.835634 -1.255427 1.940222 
4 -1.725134 -0.958727 2.135522 
9 -2.197634 -0.688327 2.976122 
12 -2.778834 0.095073 3.258622 
5 -3.344334 0.705373 3.771222 
9 -3.200834 0.026373 4.465422 
15 -3.544334 0.594373 5.153722 
1 -3.421934 0.988173 6.058122 
7 -2.998434 0.832973 6.958522 
11 -2.879334 -0.105827 6.638422 
9 -3.147334 -0.553527 5.747122 
15 -3.958834 -0.503227 5.239122 
9 -3.919634 -1.125827 4.469022 
1 -4.724834 -0.933227 3.899422 
1 -4.690034 -0.105827 3.461622 
12 -4.070534 0.091773 2.788022 
12 -4.043134 0.619573 1.926822 
2 -3.717134 0.916273 1.112022 
12 -3.215334 0.110173 1.085022 
3 -2.659534 0.184173 0.253522 
10 -2.125134 -0.238027 0.927022 
15 -1.187234 -0.397027 1.128322 
1 -0.391234 0.040773 1.393422 
12 0.191066 0.841173 1.392622 
14 0.471366 0.008973 1.929122 
1 -0.026634 0.595573 2.488422 
7 -0.470134 0.996773 3.247522 
5 -0.098634 0.332273 3.883222 
11 -0.073434 -0.608227 4.029522 
9 -1.007434 -0.782127 4.056822 
2 -0.686534 -0.599427 4.946422 
1 -0.965434 -1.554827 4.845222 
9 -1.669134 -0.909627 4.850122 
9 -2.141634 -0.132127 5.156622 
14 -1.888934 -0.067327 6.105422 
13 -1.426134 0.729873 5.667722 
2 -1.309434 1.656473 5.560422 
7 -1.024434 2.316773 4.994122 
1 -0.445234 2.359573 5.807422 
1 -0.994934 2.296473 6.601622 
2 -1.698334 2.533573 6.013022 
7 -2.026334 2.767673 5.123022 
5 -2.892134 2.338673 5.202322 
11 -3.051134 3.027073 5.874222 
12 -3.581134 3.341773 6.609822 
9 -3.705334 2.755073 7.371522 
6 -3.240334 3.695273 7.590022 
4 -2.535434 3.833673 6.893022 
10 -1.664034 4.266973 7.104622 
3 -0.735834 4.270473 7.124922 
12 0.077766 4.780173 7.084022 
13 1.049866 4.816473 7.268522 
3 1.673066 4.202073 6.833122 
15 2.032766 3.882273 5.950722 
1 1.573666 3.944473 5.131822 
8 2.231766 4.135473 4.427722 
4 1.738866 4.847073 4.009022 
13 2.034166 4.432373 3.176722 
17 1.399566 4.932573 2.573022 
4 2.187866 4.589473 1.998622 
14 2.712566 4.450073 1.165022 
6 2.946466 5.436573 1.195522 
11 2.050066 5.522573 0.862622 
14 2.127666 4.749073 0.363422 
15 2.258966 4.882073 -0.542878 
14 2.165666 3.927373 -0.462578 
7 1.407666 3.925773 -1.015978 
10 1.077666 4.248273 -0.194078 
11 1.115766 4.643573 0.753622 
17 0.931066 4.305973 1.669022 
17 0.504566 3.396173 1.469322 
12 1.247466 2.745173 1.456422 
15 1.698866 2.352173 2.261222 
6 2.468066 2.062873 2.808622 
13 1.977266 1.326773 3.274622 
7 1.157466 0.714673 3.447722 
11 1.023666 1.605073 3.832722 
9 0.212466 2.099673 4.097822 
7 -0.728234 2.226873 3.891622 
17 -0.546934 2.457773 2.985022 
7 -1.336634 2.999573 3.258122 
17 -0.694934 3.666573 2.806722 
7 -0.723034 3.946573 3.735622 
17 0.044866 3.263973 3.569922 
1 0.413466 3.370773 4.464222 
11 1.230366 2.862773 4.158522 
17 1.098266 3.163073 3.156922 
9 1.987766 3.472373 2.840922 
17 1.272566 3.452573 2.218022 
7 2.121766 3.438473 1.699722 
4 2.867466 2.897273 1.718122 
14 3.144266 3.554973 1.046322 
14 3.002166 3.080873 0.149622 
12 2.389166 2.396973 -0.074978 
7 2.276666 1.856673 -0.908978 
7 2.396466 2.160273 -1.892178 
6 1.953066 1.904873 -2.635678 
7 1.752966 2.804773 -2.236078 
7 1.895566 3.767473 -1.928078 
7 2.454666 4.368573 -2.354578 
1 3.387966 4.481573 -2.458678 
2 4.328766 4.284373 -2.529578 
7 3.866866 3.573773 -2.071178 
5 4.631966 3.133873 -2.439578 
1 5.089366 2.243073 -2.684678 
16 5.495866 2.314773 -1.838378 
4 5.128466 2.161773 -0.967378 
12 5.164766 2.469073 -0.002178 
1 4.548366 3.162173 0.218522 
14 3.860466 3.591573 -0.299178 
1 3.655966 4.125173 -1.061378 
7 2.787066 3.696773 -1.268678 
7 3.047366 2.759273 -1.415678 
5 3.919066 2.525573 -1.690878 
1 4.100166 1.794673 -2.207278 
7 3.346966 2.177173 -2.694278 
14 3.666966 1.378373 -3.076578 
12 3.572666 0.494773 -2.796478 
13 3.336666 -0.354327 -3.356578 
13 2.864866 0.281673 -3.859178 
1 3.768866 0.323073 -4.223678 
1 4.012266 1.252373 -4.189378 
1 3.243466 1.879773 -4.060378 
17 2.596266 2.502773 -4.327978 
7 2.654366 2.960073 -3.474578 
7 2.910366 3.935473 -3.354678 
12 3.834866 3.749473 -3.328678 
2 4.537966 3.166473 -3.578378 
1 5.151166 3.825473 -3.312278 
1 5.068766 4.830073 -3.386578 
12 4.689266 5.683873 -3.732678 
6 4.511166 6.600573 -3.712278 
13 4.743766 6.860073 -4.660978 
10 5.700066 6.614673 -4.450678 
9 6.632766 6.344473 -4.582078 
16 6.215266 5.560673 -4.875678 
1 6.098266 5.175273 -4.010278 
1 6.033266 5.983373 -3.468278 
1 5.626566 6.629273 -2.844478 
6 4.866766 7.203173 -2.775978 
13 5.131766 7.724173 -3.547778 
12 5.632466 8.388373 -3.935978 
17 5.202566 8.749973 -3.121278 
7 4.652966 8.356373 -2.458578 
6 3.958366 7.901273 -2.993878 
2 4.229666 8.638773 -3.543178 
6 4.134166 7.836873 -4.059478 
9 4.080966 8.411973 -4.824778 
7 3.223566 8.648973 -4.524278 
6 3.016266 7.736973 -4.491078 
16 2.114266 8.021773 -4.352478 
6 2.227566 7.332573 -3.656878 
5 1.395366 7.255673 -3.173178 
2 1.338266 6.858073 -4.068178 
5 1.386266 5.934773 -3.707878 
13 2.046966 5.439573 -4.310178 
1 2.275166 5.327573 -3.386578 
5 2.436166 5.519073 -2.387678 
6 3.369366 5.659273 -2.636678 
11 3.253766 5.715773 -1.668278 
6 3.153766 6.649873 -1.927578 
11 3.701566 6.837373 -1.159478 
6 4.249166 6.279673 -1.796878 
5 4.226666 5.560173 -1.126478 
1 4.155766 4.978173 -0.335078 
14 3.196766 5.395073 -0.181378 
11 2.349966 5.890573 -0.024078 
11 1.586066 6.374373 0.326422 
11 1.576266 6.328373 -0.653078 
5 1.690266 6.607273 -1.545978 
11 1.973866 7.312173 -1.011678 
11 1.994766 8.055573 -0.431378 
1 1.099566 8.562673 -0.830378 
5 1.554366 8.242273 -1.669178 
7 2.341166 8.716873 -1.668878 
1 2.351566 8.305873 -2.527978 
5 2.020566 7.444173 -2.426778 
6 3.001966 7.470073 -2.516278 
16 3.180766 7.713773 -1.610078 
11 3.152866 7.557873 -0.650778 
10 3.907266 8.195673 -0.417078 
14 4.125566 7.316973 0.000122 
11 3.435766 6.660173 -0.055878 
11 3.237666 7.337473 0.738922 
5 3.179266 8.243573 0.727422 
1 2.235766 7.947773 0.659522 
11 1.663766 7.252473 0.833222 
11 1.609966 6.478773 1.542322 
1 2.246966 5.764873 2.012722 
1 3.107566 6.158973 2.074122 
11 2.691966 7.037373 1.906222 
7 2.544866 7.174073 2.910422 
1 1.905066 7.827773 2.879922 
12 1.832666 8.774073 2.812522 
1 2.052766 9.352073 2.057322 
12 1.198466 9.476273 1.561122 
1 1.181166 8.950873 0.788122 
11 0.919466 7.924773 0.758122 
16 0.044266 8.342073 0.752322 
12 -0.449834 8.123873 0.003122 
11 0.104666 7.327273 0.183822 
7 -0.372034 7.217073 -0.647478 
1 -1.089334 7.268273 -1.247478 
15 -1.351034 7.113373 -0.199478 
6 -1.903434 6.468873 0.352122 
11 -2.287934 6.534073 -0.577878 
7 -1.612834 6.291273 -1.290178 
7 -0.989334 5.575173 -0.943978 
16 -0.683634 5.390673 0.030122 
11 0.230866 5.368873 0.181422 
12 -0.168834 6.173173 0.553922 
11 0.552066 6.325073 -0.088578 
15 0.552266 6.574773 -0.995278 
6 0.664966 5.650873 -0.901078 
7 0.118766 5.522373 -1.744378 
7 0.672766 6.233973 -2.093878 
5 0.559266 6.752673 -2.923078 
8 0.205966 6.584173 -3.795778 
7 -0.707334 6.601773 -3.595978 
15 -0.531634 7.562573 -3.703078 
1 -0.715434 8.345573 -4.234678 
6 -1.442434 8.688073 -3.775078 
15 -0.814434 8.832773 -3.063178 
16 -1.496534 8.372173 -2.571078 
1 -0.807434 7.722973 -2.336978 
7 -0.060734 7.105973 -2.240778 
5 0.331066 7.745573 -2.874678 
5 0.399766 8.291773 -2.067478 
1 0.480666 9.142173 -1.527778 
8 1.280466 9.664873 -1.710078 
7 2.148366 10.036273 -2.011278 
8 3.029966 9.603873 -2.227778 
6 3.184366 9.217873 -3.115378 
15 2.495966 9.154673 -3.946178 
14 1.779866 9.110173 -4.556278 
1 0.982766 9.551273 -4.302878 
7 0.576666 9.150373 -5.065378 
3 0.337766 9.991173 -5.512178 
15 0.200166 10.663473 -6.145578 
5 -0.202034 9.935273 -6.558378 
1 0.247166 9.235873 -7.002578 
7 0.622766 8.659373 -6.251078 
1 -0.035434 8.039873 -5.973478 
1 -0.107434 8.011473 -5.021678 
2 0.542466 7.272673 -4.968878 
5 0.904766 7.754873 -5.799678 
2 0.928266 6.785473 -5.740778 
7 1.214666 6.916673 -6.589078 
1 1.945766 7.112173 -7.167278 
1 2.112466 6.889473 -8.097778 
1 1.677066 6.146673 -7.622278 
1 1.995966 5.524073 -6.954778 
13 1.742566 4.897973 -6.184878 
9 1.242266 4.164273 -6.480778 
13 1.385466 4.005973 -5.536678 
17 1.676066 3.180973 -5.990978 
9 2.286066 2.861273 -6.686778 
5 2.751766 2.020873 -6.820278 
2 3.393866 2.010173 -6.105078 
17 3.038266 2.646073 -5.446878 
12 3.564766 1.919173 -5.102078 
1 4.138666 2.637673 -4.647878 
1 4.464866 3.223573 -5.368878 
7 4.610566 3.927573 -4.721078 
1 4.049366 4.486773 -4.153878 
11 3.377866 5.204673 -4.093078 
6 3.455666 6.069273 -3.728978 
6 2.657766 6.437773 -4.099878 
2 2.066366 6.398873 -4.775478 
13 2.057166 5.826673 -5.542978 
11 1.245266 5.876273 -6.040878 
9 0.766866 5.358973 -6.737478 
7 -0.068034 4.945973 -7.132378 
4 -0.887534 5.227873 -6.616778 
1 -0.846134 4.204273 -6.341178 
7 -1.728634 3.828773 -6.007578 
12 -2.098434 3.752273 -5.055978 
11 -2.172534 4.747473 -5.280778 
6 -2.833334 4.187673 -5.756278 
9 -3.765634 4.278573 -5.538678 
15 -4.451534 5.046973 -5.964378 
1 -4.572934 5.742273 -6.626278 
15 -4.124734 5.696473 -7.450778 
6 -3.317634 5.964473 -6.932878 
4 -2.843134 6.726073 -6.568678 
7 -2.015534 6.334173 -6.420278 
11 -1.770334 5.462673 -6.058778 
11 -1.739334 5.778973 -5.120778 
2 -1.201034 6.568273 -5.368178 
7 -1.623734 7.214273 -4.808978 
16 -1.901734 7.347873 -3.886478 
7 -1.938634 6.647573 -3.294178 
11 -1.904134 6.035873 -4.073478 
7 -2.343234 5.511373 -3.351378 
16 -3.296034 5.711873 -3.490478 
1 -4.220534 5.346973 -3.368278 
1 -4.331034 6.289973 -3.600878 
17 -4.492834 6.897473 -4.309378 
6 -4.056034 6.707673 -5.168278 
11 -3.654334 5.822873 -4.935878 
11 -3.060734 6.489373 -4.363478 
16 -3.004134 6.718273 -3.420378 
5 -2.756234 7.098073 -2.558178 
17 -1.974734 7.300073 -2.066378 
7 -1.170234 6.661773 -2.211978 
7 -1.142634 5.723173 -1.975778 
7 -1.604334 4.953673 -2.404978 
14 -2.144334 4.220573 -2.693878 
12 -2.233334 3.767473 -3.493178 
11 -2.721434 4.405173 -4.025278 
14 -3.334934 3.858773 -3.473378 
16 -4.217534 4.084973 -3.886878 
13 -4.522734 4.366373 -2.957078 
14 -3.805234 4.451173 -2.279378 
13 -3.008634 4.825773 -2.613078 
7 -3.006134 5.374573 -1.779878 
1 -3.410634 4.773873 -1.218378 
14 -2.595234 4.366073 -1.536378 
7 -1.676534 4.130773 -1.426578 
5 -1.642534 3.437673 -2.056378 
12 -1.089934 3.605273 -2.863678 
11 -1.145434 4.563873 -3.323178 
7 -0.538734 5.009973 -2.708878 
7 -0.395434 5.367573 -3.568178 
11 -0.823034 5.573873 -4.435878 
2 -0.128734 5.968873 -5.077678 
13 0.297866 5.101973 -5.003678 
1 -0.192834 4.256673 -4.943178 
11 -1.029834 4.209473 -4.472678 
12 -1.341234 3.419573 -4.024178 
12 -1.313534 2.459373 -3.989178 
5 -1.287534 1.601273 -3.533178 
12 -2.126034 1.917673 -3.796078 
1 -3.029934 1.935973 -4.168378 
12 -2.870234 2.487573 -3.353278 
13 -3.719534 2.872473 -3.111478 
14 -4.116734 3.419273 -2.334178 
14 -4.330934 2.949073 -1.389678 
2 -5.279534 2.784773 -1.422078 
6 -5.255734 2.952173 -2.354078 
12 -6.134534 3.256773 -2.355178 
11 -6.835134 3.875773 -2.763578 
1 -6.726734 4.877473 -2.403178 
7 -6.786034 5.469773 -3.053378 
12 -5.929334 6.056373 -2.871178 
13 -5.484934 6.404473 -2.091378 
7 -5.425634 7.422373 -2.170978 
1 -5.741434 8.156373 -1.611978 
5 -5.428234 8.913273 -1.033478 
5 -4.601834 8.392573 -0.787278 
1 -4.252134 8.377473 0.123722 
12 -5.236034 8.484573 0.330722 
1 -5.850934 9.232873 0.715222 
12 -5.014534 9.804373 0.774122 
1 -5.019534 9.378073 1.721822 
7 -5.614834 9.708073 2.407222 
1 -4.983134 9.146173 2.903622 
14 -4.365434 8.446373 2.697922 
1 -3.871334 7.624373 2.326222 
6 -3.178134 7.386873 1.686022 
1 -2.597634 7.756673 2.376622 
5 -1.782334 7.300073 2.704422 
6 -1.909734 6.350373 2.337822 
6 -2.194434 6.903673 1.617422 
1 -1.767834 7.615573 1.182722 
1 -1.820834 8.117973 0.424922 
10 -2.116434 8.883973 -0.163378 
7 -2.606934 8.290073 -0.803778 
12 -2.763134 7.490673 -0.291178 
14 -3.284534 7.711373 0.452022 
6 -3.858234 6.960373 0.276922 
12 -3.640634 6.723273 -0.604878 
1 -3.351534 5.911473 -0.111078 
6 -2.725934 5.542273 0.527822 
1 -2.960834 4.624173 0.415322 
11 -1.934534 4.793373 0.342222 
7 -2.323234 4.556873 -0.533478 
14 -2.622934 3.642673 -0.573378 
14 -2.516034 3.223273 -1.439678 
11 -2.479934 2.718973 -2.245878 
14 -3.417834 2.653473 -1.925278 
1 -3.863434 1.999373 -1.418578 
2 -3.630434 1.930873 -0.479978 
7 -2.776334 1.662873 -0.129878 
14 -2.725334 2.610773 0.009622 
1 -2.960634 3.324673 0.622922 
2 -3.223934 2.706273 1.293122 
7 -2.826834 2.598673 2.242522 
12 -3.385434 1.813773 2.054222 
2 -4.140434 1.837573 1.437222 
1 -4.942234 1.316273 1.172022 
8 -5.116934 1.565373 2.141022 
14 -6.030734 1.753773 2.257922 
11 -6.377434 2.605973 2.043422 
6 -5.945334 2.612273 1.206422 
5 -6.016734 2.204373 0.348922 
2 -4.984934 2.411773 0.575622 
2 -4.090434 2.652073 0.237522 
11 -4.616134 3.286373 -0.324578 
14 -3.865534 3.924973 -0.420978 
7 -4.078434 4.453673 0.394422 
2 -3.808634 4.003273 1.147122 
15 -3.393734 4.781173 1.376922 
6 -3.195834 5.778173 1.571222 
6 -3.819834 6.491173 1.591322 
13 -4.051434 6.219373 2.487322 
7 -4.833434 6.363373 2.990222 
11 -5.042634 6.770873 3.844222 
13 -4.634934 6.348773 4.552322 
13 -5.152934 6.541573 5.383422 
2 -5.659234 7.328573 5.736922 
5 -5.611934 8.249873 6.155522 
12 -5.148234 8.739473 6.821422 
2 -5.855734 9.061473 7.481622 
7 -5.950134 8.129973 7.195122 
7 -5.594034 7.520973 7.854822 
2 -4.681234 7.695373 8.198322 
5 -4.636034 7.572673 7.310522 
13 -4.354934 7.585473 6.357822 
7 -3.480034 8.061973 6.267122 
4 -2.819634 7.404273 6.674422 
15 -3.536634 6.832373 6.287322 
13 -2.987034 6.842273 5.439722 
11 -3.098034 7.782973 5.160022 
15 -3.827034 7.872573 4.481622 
13 -3.923434 6.989173 4.113622 
6 -3.678534 7.020073 3.199622 
13 -3.174234 6.477273 3.821322 
16 -2.370734 6.947273 3.920722 
5 -1.847334 6.058873 3.953622 
1 -2.318834 5.283673 3.704522 
13 -3.240034 5.165373 4.012322 
1 -3.093434 4.877673 3.074822 
7 -2.767134 4.039473 3.343122 
7 -2.288734 3.280373 3.725622 
5 -2.996234 2.977573 4.312022 
13 -2.733334 3.868173 4.590522 
7 -1.846934 4.186873 4.395422 
16 -2.285034 4.908673 4.841322 
1 -2.474734 5.822473 4.784222 
13 -3.196234 5.193873 5.231722 
1 -2.489134 5.182273 5.889722 
1 -2.975234 5.657973 6.542722 
4 -3.695434 5.357473 6.055722 
13 -4.309634 5.954973 5.647022 
11 -4.606734 6.412873 6.482022 
7 -4.820134 6.085473 7.381522 
1 -4.999834 5.148373 7.052422 
4 -4.566734 4.491973 6.516822 
13 -4.458534 4.635673 5.605922 
4 -4.343734 3.705273 5.813522 
5 -4.707234 3.066573 5.200322 
7 -5.369534 3.353973 5.973822 
11 -5.792534 3.451773 5.133222 
12 -5.326634 4.249973 5.309122 
13 -4.884734 4.493673 4.486722 
5 -5.209934 3.566973 4.215322 
1 -5.872234 4.265373 4.035622 
7 -5.883634 5.227373 4.362322 
13 -4.998634 5.357373 4.017322 
1 -5.421134 5.507773 3.036222 
14 -4.566634 5.223773 2.823922 
13 -4.215234 4.736373 3.699722 
7 -3.762134 4.065573 3.157622 
1 -4.181934 4.488773 2.349022 
2 -4.711234 3.773573 1.997622 
7 -4.110934 3.234373 2.478222 
5 -4.644634 3.388473 3.258722 
6 -5.153034 2.567873 3.086822 
9 -5.013334 1.624473 3.314422 
12 -4.309134 1.004873 3.363822 
5 -4.121934 1.574173 4.151222 
5 -3.882434 2.384573 3.708522 
12 -3.172334 2.034773 3.069522 
7 -2.300334 2.369473 3.104722 
14 -2.446134 1.417073 3.350222 
9 -2.339834 0.785873 4.106822 
5 -2.125834 1.471173 4.705522 
7 -1.382234 1.276873 4.067122 
9 -1.585634 0.527873 3.436522 
12 -2.189234 0.652973 2.666622 
7 -2.217634 1.664973 2.378622 
12 -2.751434 1.150173 1.784722 
2 -2.478134 1.891473 1.271322 
15 -1.965634 2.533373 0.838522 
7 -2.301834 3.152973 1.508922 
11 -2.619034 4.071673 1.420322 
7 -2.246434 4.481273 2.249922 
6 -2.536534 5.432573 2.253722 
10 -1.725134 5.411573 2.784622 
7 -0.926734 4.870373 2.791522 
5 -0.621534 5.682673 3.031622 
17 0.214466 6.047273 3.284422 
1 0.997966 6.229273 2.758222 
11 0.660066 6.200373 1.926822 
12 -0.094634 6.741373 1.646322 
6 -0.868634 6.151673 1.512722 
9 -0.616734 5.241073 1.367122 
1 -1.277634 4.480673 1.487122 
7 -1.329234 3.690773 1.949122 
17 -0.388034 3.752073 1.864922 
11 -0.748234 2.830673 1.949322 
12 -0.016934 2.220173 1.795922 
7 -0.805834 1.711873 1.988222 
10 -0.693634 1.450073 1.063522 
6 -0.641034 1.423073 0.135322 
12 0.264866 1.097973 0.299722 
15 -0.148334 0.532473 -0.411978 
1 -0.618634 0.013973 -1.102478 
13 -0.899634 -0.298427 -1.984578 
5 -1.117334 0.412673 -2.548578 
14 -1.026334 0.883373 -1.802478 
2 -1.862034 1.094673 -1.356378 
9 -2.435134 1.868073 -1.610178 
12 -1.550034 2.245773 -1.921778 
12 -0.828634 2.652673 -2.335778 
6 -0.901734 2.997173 -1.479178 
7 -0.231534 3.701073 -1.723078 
4 -0.064834 3.755173 -2.625578 
7 0.799266 3.921373 -3.005378 
12 0.408366 3.373073 -3.683778 
14 0.825266 3.950373 -4.230678 
13 1.621766 4.420373 -4.154178 
7 1.447366 4.654973 -3.212278 
5 1.366466 5.338073 -2.541978 
4 1.255966 4.774673 -1.782478 
7 0.395466 4.443173 -1.556278 
13 -0.175734 4.353973 -0.765778 
7 -1.213434 4.654173 -0.618478 
11 -1.052034 3.995073 0.001822 
9 -0.307934 3.469873 0.330522 
5 0.387066 2.803273 0.550322 
12 1.248966 2.430373 0.365822 
14 1.105966 3.296073 -0.027778 
7 0.871266 2.947173 -0.877278 
2 0.457666 2.069573 -0.599578 
11 0.053766 1.540873 -1.412678 
7 0.631666 0.909673 -1.832178 
5 -0.144234 0.280873 -2.240378 
6 0.655166 -0.163627 -1.933078 
7 0.939366 -0.558127 -2.813378 
13 1.420266 -1.197727 -3.419978 
9 0.660466 -1.727327 -3.070678 
9 0.114566 -1.009727 -2.640278 
5 -0.473834 -1.087327 -3.444178 
5 -1.192734 -0.510827 -3.170278 
7 -2.062534 -0.815227 -3.472978 
8 -1.506334 -1.585227 -3.579978 
1 -2.094834 -2.322627 -3.466578 
3 -2.780434 -2.875727 -3.764378 
14 -3.468734 -2.594727 -3.040078 
1 -4.201134 -3.179427 -3.330478 
7 -3.788934 -4.048527 -3.578078 
16 -3.540134 -4.860327 -3.854078 
17 -3.101434 -5.437127 -4.486278 
11 -2.572734 -6.115427 -3.995878 
9 -1.788234 -6.295927 -4.556578 
12 -1.037034 -5.739627 -4.882478 
1 -0.128334 -5.859927 -4.787878 
4 -0.545034 -6.038427 -3.923178 
1 -1.074534 -5.259427 -3.584378 
5 -2.005834 -5.009427 -3.668178 
1 -1.534434 -4.776227 -2.829978 
6 -0.908334 -4.151527 -2.605778 
1 -1.494534 -3.566027 -2.136078 
1 -1.543034 -4.449227 -1.746078 
6 -1.362234 -4.686127 -0.778778 
5 -2.328834 -4.527127 -0.632478 
1 -2.271934 -3.567227 -0.523478 
1 -2.011634 -2.734827 -0.884278 
12 -2.607234 -2.877927 -1.685878 
7 -2.709634 -1.898527 -1.634078 
1 -1.920334 -1.446627 -1.246578 
11 -0.999734 -1.657427 -0.810078 
9 -0.250734 -1.521427 -1.430378 
8 0.422966 -1.370427 -0.786878 
7 0.849366 -0.898927 -0.003178 
6 1.054666 -0.308427 0.778822 
11 1.652466 0.080773 1.415022 
12 1.343866 0.885773 1.083322 
12 1.709466 1.763973 1.317522 
1 2.172366 1.008973 1.691322 
1 2.933566 0.975173 1.026322 
1 2.251066 0.499573 0.493322 
15 2.148966 0.579673 -0.494178 
10 2.797066 -0.014127 -0.880278 
1 3.071366 -0.037027 -1.775478 
13 2.248666 0.241273 -2.227278 
1 1.538666 0.836473 -2.544878 
5 0.684566 0.595573 -2.909678 
12 1.160666 1.152673 -3.574978 
7 1.974866 0.801173 -3.993478 
13 1.998166 -0.111927 -4.319078 
6 1.115066 -0.579127 -4.420378 
5 0.374066 0.150573 -4.354078 
11 0.335766 0.600573 -5.196678 
17 0.173066 1.521873 -5.568078 
12 -0.529434 2.166773 -5.144578 
12 -0.459134 1.785073 -4.214178 
5 -0.483734 0.831473 -4.140678 
1 -0.861334 0.754373 -5.074278 
5 -1.644534 0.222573 -4.673278 
17 -2.607634 0.466673 -4.441278 
15 -2.671034 1.339273 -4.966978 
12 -2.375834 2.305573 -5.161078 
1 -2.734134 1.945173 -5.974378 
13 -2.067634 1.228973 -6.216778 
12 -1.508634 1.935773 -5.814378 
7 -1.924534 2.717073 -6.226478 
10 -1.159434 2.981573 -6.709878 
5 -0.428134 2.576173 -6.304478 
12 -0.363334 3.168873 -5.539978 
17 0.373366 3.162673 -4.911378 
17 1.309666 3.186573 -4.941578 
7 1.710366 3.081273 -4.045078 
15 1.656466 2.309073 -3.503478 
7 0.985566 2.657573 -2.944278 
5 0.337966 1.959573 -3.093078 
12 0.408966 2.322873 -3.942678 
17 1.166366 2.001473 -4.427178 
6 2.021166 1.692873 -4.415378 
5 2.528466 1.407773 -5.206378 
7 2.438266 1.334573 -6.189278 
17 1.532066 1.595873 -6.096078 
6 0.993966 0.845473 -6.512978 
11 0.371166 0.163673 -6.511378 
4 -0.293134 -0.550127 -6.353878 
11 -0.235534 -1.379827 -5.879778 
7 0.140466 -1.631327 -4.982778 
13 0.954566 -1.881127 -4.513078 
14 0.187566 -2.416327 -4.197878 
9 0.116066 -2.670627 -3.298178 
10 -0.703234 -2.902727 -2.968978 
9 -0.422734 -3.081927 -2.019978 
6 0.233266 -3.516727 -1.494578 
9 0.609166 -2.645627 -1.720978 
1 1.369366 -2.233527 -1.264778 
7 1.886766 -2.650927 -0.544778 
7 2.144766 -2.396727 0.381322 
17 2.010666 -1.555827 -0.048478 
7 2.903666 -1.533927 0.173922 
17 3.145466 -0.661627 -0.081878 
7 3.502566 -1.060227 0.756022 
1 4.352566 -1.264527 0.276422 
14 4.201666 -0.838527 -0.632978 
7 3.641166 -1.619027 -0.547678 
9 3.775166 -1.753227 -1.484378 
4 3.859566 -2.224227 -2.309778 
10 3.371866 -1.767027 -3.027378 
13 2.681966 -1.429127 -3.604578 
11 2.528466 -1.149427 -2.598178 
9 1.692466 -1.756627 -2.549078 
12 1.914566 -1.364027 -1.669278 
7 2.537366 -2.012227 -1.246678 
1 2.850766 -2.193127 -2.088378 
9 2.048266 -2.689827 -2.252678 
10 1.840566 -3.262727 -1.448678 
7 2.713666 -3.420427 -1.115378 
12 3.500866 -2.937727 -1.406978 
7 4.031766 -2.542227 -0.686978 
13 4.791066 -2.206127 -1.268878 
2 5.039266 -2.361027 -2.177078 
11 5.560066 -3.093627 -2.558378 
4 5.594466 -3.233727 -3.525778 
14 4.809666 -3.625727 -3.029678 
1 5.480466 -4.230527 -2.639778 
9 5.486366 -4.650627 -1.752378 
15 4.541466 -4.786427 -1.416378 
1 4.744366 -3.952627 -0.940578 
1 5.049366 -4.549527 -0.269178 
17 5.721066 -4.434527 0.533222 
6 4.977966 -4.527827 1.125122 
10 4.408666 -4.485827 1.875522 
7 4.599666 -3.499727 1.972822 
1 5.553666 -3.546427 2.207922 
11 6.412666 -4.158727 2.231722 
1 6.661066 -5.089927 2.151922 
17 7.510366 -4.651327 1.984522 
1 8.455866 -5.023127 1.762422 
2 9.096266 -4.264727 1.392022 
3 9.898766 -4.206027 0.795222 
7 9.837366 -4.423927 -0.088678 
1 9.420266 -3.581627 -0.333978 
2 9.836666 -2.822627 -0.762578 
1 10.313066 -2.181027 -0.203478 
5 9.398066 -1.988527 -0.112578 
7 9.487166 -1.540727 0.778022 