1401
Atoms. Timestep: 71000000
6 3.874144 -8.346930 -5.529138 
11 3.972144 -9.242360 -5.244038 
14 4.092144 -9.820182 -4.484438 
16 3.774044 -9.077630 -3.896238 
5 3.771744 -8.882290 -2.919138 
11 3.395344 -8.152680 -2.412538 
8 2.958844 -7.306130 -2.344838 
2 3.302544 -7.155400 -1.487738 
1 2.625844 -7.655870 -1.003938 
1 2.681644 -6.772290 -0.584038 
1 3.347144 -6.060440 -0.469338 
7 3.154444 -5.484580 0.243662 
3 2.330244 -5.907150 0.055862 
9 1.792044 -5.198510 0.343862 
9 1.390444 -5.979830 0.704462 
12 0.627744 -6.474910 0.391462 
3 0.249144 -7.170380 0.922862 
1 0.225844 -7.385990 1.933462 
17 0.268544 -6.355020 1.991762 
9 0.447844 -5.804680 1.211162 
15 -0.503556 -5.780540 0.913762 
1 -1.299356 -5.973120 1.449662 
12 -0.753556 -5.984000 2.275662 
6 -1.145456 -6.114060 3.135962 
8 -0.629856 -6.919770 2.894162 
11 -0.031756 -6.331290 3.362362 
6 -0.602356 -5.853920 4.028562 
1 -0.528156 -5.558850 4.911262 
1 0.176744 -5.424120 5.564762 
15 1.048044 -5.365080 6.002162 
14 1.395444 -5.084550 6.823962 
2 2.261944 -4.669290 6.527962 
8 2.434444 -5.489090 6.070362 
12 3.240944 -5.223840 5.482462 
1 3.912644 -4.786140 5.008362 
15 3.537144 -4.969080 4.126262 
12 2.943844 -4.146490 4.145162 
12 2.402744 -3.653910 4.803362 
17 3.349044 -3.362820 4.937162 
3 3.749644 -3.313730 4.027662 
6 4.366844 -4.078210 4.256362 
15 4.631044 -4.999910 4.158162 
15 4.965344 -5.954030 4.141762 
12 5.193744 -6.844190 3.966862 
15 4.527144 -6.768010 4.718662 
1 4.785744 -7.681130 4.773562 
1 4.408944 -8.484460 4.383762 
14 4.471044 -8.147880 3.491262 
5 3.918244 -7.545410 4.012262 
15 3.418444 -6.894990 4.608662 
1 2.431444 -6.853690 4.607762 
1 1.905044 -6.769810 3.884562 
7 2.450144 -6.315720 3.263062 
15 3.329044 -6.192010 2.933062 
15 3.125544 -5.892340 3.883662 
12 2.531144 -5.119310 3.828562 
12 1.639344 -5.286440 4.060562 
12 1.189044 -4.793850 4.730062 
3 0.776444 -4.314110 5.512062 
14 0.008044 -4.513180 6.084062 
7 -0.000756 -3.638070 5.669462 
17 -0.749556 -3.999380 5.071662 
6 -1.017856 -4.635670 4.328762 
15 -0.115956 -4.501080 4.245762 
7 0.289644 -3.614650 4.486562 
12 1.157444 -3.292900 3.998962 
7 0.848144 -2.513010 4.515162 
11 0.231144 -2.035550 3.893462 
1 -0.649956 -2.214480 3.783762 
5 -1.192956 -1.940020 2.999562 
15 -1.529656 -1.811890 3.837862 
16 -2.293756 -1.995640 4.410462 
3 -2.584256 -2.873940 4.189562 
6 -1.779656 -3.327670 4.475162 
7 -1.013456 -2.922140 4.900262 
7 -0.915456 -2.018370 5.355362 
1 -1.001656 -1.664770 6.254862 
7 -0.079856 -1.998900 6.151962 
7 0.402844 -2.847190 6.254262 
14 0.753944 -3.737630 6.616462 
1 1.572544 -3.705980 7.204162 
1 1.899144 -3.587580 6.223762 
7 1.343644 -2.851940 6.326662 
7 1.788644 -1.988530 6.341762 
1 2.741344 -2.029710 6.176662 
16 3.509744 -1.559100 6.460962 
3 2.897744 -0.812140 6.159262 
17 2.098344 -0.688240 5.657162 
11 1.465444 -0.426810 4.967962 
1 1.353244 0.358990 5.536962 
16 0.573244 0.724490 6.016662 
1 0.522744 -0.200810 5.845762 
7 0.556044 -1.118530 6.190962 
7 0.994044 -0.917230 7.070862 
12 1.907044 -0.545810 6.993362 
1 1.875344 0.417390 7.261062 
4 2.484344 0.377690 6.531962 
1 2.847544 0.132690 5.678362 
1 3.397144 1.027390 5.444062 
1 2.818444 0.760990 4.708662 
11 2.124844 0.139490 4.282262 
11 2.630244 -0.362010 3.715362 
1 2.688744 0.163690 2.923362 
16 3.011844 -0.145010 2.065562 
1 2.702644 -0.942660 2.575762 
11 1.738944 -1.018610 2.792262 
2 1.793244 -1.856100 2.309162 
16 2.528644 -2.181560 1.749562 
17 2.096644 -3.035300 1.928162 
3 2.864344 -3.009740 2.489962 
12 2.741244 -2.246670 3.099062 
11 2.310844 -1.610360 3.604462 
11 3.259644 -1.296600 3.901262 
1 3.157744 -2.177670 4.337162 
17 2.703944 -2.422130 5.203062 
7 1.791444 -2.564290 5.051562 
11 1.753544 -1.810810 4.466062 
2 2.162544 -2.614350 4.077362 
3 2.773344 -3.174870 3.506562 
12 2.015344 -3.576100 3.060362 
3 2.616244 -3.994610 2.397762 
9 1.879844 -4.555870 2.147962 
15 2.361844 -5.316170 2.443662 
9 2.308644 -5.578340 1.525862 
16 2.940644 -6.307080 1.709762 
8 2.909944 -7.289660 1.736562 
1 3.498244 -7.833600 2.248362 
11 3.423844 -8.726100 2.670262 
1 4.337244 -8.402280 2.301262 
14 4.735744 -7.544020 2.089762 
17 5.241944 -7.104810 2.802662 
15 4.749744 -6.323840 2.888762 
8 5.157244 -6.303460 2.028362 
13 4.184744 -6.200930 2.062662 
15 4.226744 -5.281650 2.317562 
8 4.298044 -4.952480 1.423362 
16 4.129244 -4.149010 0.885362 
7 3.443044 -4.777380 0.903962 
1 2.648744 -4.498280 1.341862 
9 1.817244 -4.204470 0.939762 
9 1.289344 -3.414080 0.854362 
9 0.940044 -4.310330 0.673462 
9 0.248044 -4.742990 1.159862 
11 -0.261256 -4.878550 1.972462 
9 0.634844 -5.116900 2.265762 
6 0.201444 -4.582700 2.972062 
1 0.052744 -3.809450 3.469162 
1 0.277844 -3.558100 2.552662 
9 0.363744 -3.009010 1.750662 
15 -0.142856 -2.109740 1.845962 
1 0.610544 -1.663270 1.314962 
4 1.108244 -1.170450 0.514262 
16 2.037044 -1.567920 0.702662 
7 1.185844 -2.156350 0.703062 
9 0.436444 -2.608060 0.458062 
13 -0.465856 -2.247700 0.259662 
9 -0.297356 -3.108170 -0.093538 
12 -0.568156 -3.944800 -0.562638 
9 -0.100156 -4.461340 0.109362 
1 -0.084956 -4.859350 -0.771038 
9 0.879544 -4.638830 -0.695538 
1 1.232644 -5.398740 -1.193438 
3 2.202544 -5.520710 -1.145938 
7 3.022844 -5.182130 -0.865238 
6 3.635644 -5.059040 -1.626438 
6 4.236044 -5.274210 -2.465538 
3 5.082244 -5.048980 -2.755338 
2 5.721744 -5.094010 -2.030638 
4 6.209244 -5.485180 -1.278038 
1 6.813244 -6.194700 -1.300538 
1 7.706144 -6.630630 -1.507638 
1 8.173244 -7.358960 -1.960638 
12 8.212744 -7.387340 -1.006938 
4 9.055344 -7.241680 -1.462938 
9 9.114344 -6.297610 -1.320238 
13 8.616644 -5.425960 -1.523038 
3 7.657844 -5.312840 -1.397738 
14 7.669244 -5.462850 -0.476738 
7 6.849144 -5.657840 0.207362 
3 7.321744 -5.188020 0.917662 
9 6.357544 -5.084430 1.160662 
8 5.552644 -4.552140 0.741062 
1 5.552544 -4.440510 -0.193838 
16 4.953544 -3.768210 -0.469838 
1 5.751044 -3.398000 -0.924138 
6 5.569544 -3.692800 -1.799738 
17 5.306644 -3.161740 -2.606938 
5 5.770744 -2.357380 -2.229738 
1 6.381544 -1.982750 -2.768938 
6 6.935144 -1.117400 -2.758438 
3 6.692944 -0.207710 -3.064438 
16 6.012844 -0.739700 -2.606038 
5 6.199844 -0.732720 -1.654338 
1 5.955844 -1.605760 -1.394438 
1 5.267244 -1.950310 -0.848638 
16 4.477044 -2.237550 -0.345038 
8 4.149544 -1.981030 -1.261138 
17 4.231744 -2.438460 -2.078538 
6 4.053044 -3.409760 -2.046638 
17 3.232944 -2.973010 -2.098038 
9 3.398044 -2.729500 -1.150038 
16 3.411944 -2.633530 -0.077838 
7 3.245244 -3.516050 0.300962 
16 3.580644 -2.988680 1.112562 
3 3.927444 -3.213790 2.064162 
6 4.304144 -4.074880 2.277962 
15 4.348444 -4.452800 3.144562 
3 4.644744 -3.534290 3.112162 
1 4.782344 -2.651130 2.731962 
13 5.616444 -2.119970 2.670062 
5 5.656444 -2.646320 1.839862 
6 5.086344 -2.555500 1.071162 
16 4.217444 -2.183410 0.633662 
15 4.670844 -1.527800 1.216562 
16 3.814344 -1.187260 0.950262 
16 3.821744 -0.897710 1.858662 
8 4.706644 -0.950690 2.347362 
1 4.921744 -0.162510 2.819062 
15 5.417244 0.658690 2.837962 
7 5.573644 1.522490 2.440062 
12 6.078944 1.322290 1.597662 
17 6.873844 1.670290 1.175762 
1 7.428344 1.789490 0.289362 
11 7.084644 1.059890 -0.340038 
16 6.139644 1.403190 -0.148938 
12 5.253444 1.781490 -0.337538 
12 4.841644 2.396790 -1.007938 
1 4.346244 2.480490 -1.833538 
16 4.760244 2.576290 -2.742438 
13 4.256244 3.040890 -3.641338 
13 3.540044 3.282890 -4.164838 
1 4.108944 4.104690 -3.896838 
7 5.016844 3.942890 -4.345838 
4 4.731044 4.913090 -4.239738 
1 5.488544 5.020190 -3.580338 
11 5.208144 4.380090 -2.878338 
17 6.101444 4.124790 -3.032538 
11 6.323144 3.215290 -2.919038 
15 6.005244 3.522090 -2.045438 
1 6.408444 3.066690 -1.278038 
7 7.020044 3.185790 -0.512638 
13 6.241344 3.103390 0.069962 
12 6.035944 2.246090 0.368662 
16 6.326844 2.943690 1.058462 
17 5.641944 3.663090 0.904062 
16 4.969644 4.282090 0.511362 
4 3.976244 4.438390 0.754562 
11 4.109744 5.361790 0.908862 
9 3.770444 4.942190 1.685962 
1 3.595644 4.366190 2.404462 
1 4.475644 4.037490 2.464662 
3 4.643744 3.779290 1.456662 
1 4.218044 2.880090 1.473762 
12 4.745044 2.453890 0.829462 
12 4.420444 1.707490 1.347262 
4 4.867644 0.888090 1.845262 
6 5.153344 -0.125010 1.627762 
16 4.536844 -0.417710 0.886362 
12 4.680144 0.554590 0.711462 
12 5.001444 0.757490 -0.136838 
5 5.584444 0.114690 -0.717438 
17 4.679244 -0.123310 -0.568538 
16 4.004644 -0.448610 -0.006138 
12 3.941544 0.564090 -0.149838 
9 3.517844 0.229290 -0.935938 
9 2.650344 0.795990 -0.993938 
11 1.676344 0.835290 -0.910038 
4 0.836144 0.235690 -0.629838 
4 0.654044 0.944390 0.058562 
8 1.632244 1.262790 -0.007938 
3 2.503244 1.841690 0.270362 
12 3.294644 1.634690 -0.225038 
11 3.221144 2.345390 -0.872038 
9 2.992944 2.113590 -1.752838 
3 3.252544 3.043590 -1.801938 
14 3.924044 3.670290 -1.685538 
17 4.081844 3.327290 -0.660738 
12 4.076344 2.463190 -0.325738 
16 3.804844 3.180290 0.287362 
6 2.890844 3.052890 0.528662 
7 1.969344 3.026390 0.192162 
8 1.466044 2.977290 1.059762 
9 2.213744 2.463190 1.297762 
12 2.825244 1.635690 1.323462 
2 2.948044 0.979090 1.978462 
14 2.182444 0.508590 1.533962 
16 2.336544 -0.279910 1.016362 
4 1.875244 -0.236510 0.138562 
13 2.778344 -0.067410 -0.149038 
16 2.879444 -0.901040 0.412362 
4 2.268044 -1.178580 -0.349638 
16 2.616844 -2.059410 -0.249638 
4 1.622444 -1.979390 -0.182738 
9 1.523744 -2.947510 0.035862 
14 2.273244 -3.212720 -0.506538 
7 2.761844 -3.970110 -0.833938 
9 1.932144 -4.314390 -1.151938 
6 2.508544 -4.480970 -1.928838 
15 2.355144 -5.338750 -2.490938 
7 2.375244 -5.958250 -3.252938 
2 2.635044 -5.208190 -3.758338 
11 2.916144 -4.396530 -3.278438 
17 3.001244 -3.422150 -3.208438 
17 3.774644 -3.241980 -3.781438 
1 4.681944 -3.457610 -3.584638 
6 4.629844 -4.058050 -2.846938 
15 5.587444 -3.941370 -3.126138 
4 6.329744 -3.661320 -3.729938 
9 6.622344 -2.910570 -4.215938 
8 6.004844 -2.188370 -4.382438 
11 6.338444 -1.581260 -5.058638 
1 6.982644 -0.979630 -4.745838 
3 6.522144 -0.142910 -5.160038 
1 7.285344 0.111490 -5.721338 
1 8.237544 -0.195610 -5.632738 
15 7.894844 -0.186910 -4.743938 
14 8.268144 -0.773730 -4.139438 
4 7.869344 -0.848600 -3.243038 
2 7.815744 0.138290 -3.160038 
1 7.555144 1.032890 -3.245438 
3 7.143444 0.681390 -4.018338 
3 6.883444 1.574290 -3.983638 
17 6.079044 2.092390 -3.947738 
13 5.292644 2.237990 -4.469238 
13 4.755844 1.582290 -4.912938 
4 4.087344 0.906790 -5.266738 
13 3.665644 1.642390 -4.741238 
13 3.419944 1.276090 -3.842838 
4 4.206744 0.688690 -3.907538 
3 5.132044 0.580690 -4.021638 
3 5.835144 1.159490 -4.449638 
3 5.740444 0.501490 -5.126838 
5 6.239844 0.457990 -5.912738 
13 6.220144 -0.392910 -6.315538 
16 5.764444 -1.122340 -5.808538 
8 4.881944 -0.961850 -5.504938 
4 4.396744 -0.315610 -6.055538 
15 4.873444 -0.126110 -6.858138 
6 5.204144 -0.791110 -7.428338 
3 5.736744 -0.038710 -7.464238 
11 4.785644 -0.004410 -7.877038 
13 4.127144 0.210790 -8.600538 
3 4.391944 -0.669730 -8.602938 
13 5.085544 -1.420420 -8.482938 
4 5.648144 -2.175980 -8.640538 
16 5.018744 -2.876150 -8.455438 
16 4.716344 -2.205370 -7.861138 
6 4.191044 -1.509370 -7.527838 
3 3.858244 -2.084810 -6.728038 
2 3.648544 -2.618780 -5.980938 
4 3.116444 -1.876210 -5.700938 
17 2.873144 -2.520000 -4.995838 
11 2.109444 -2.463240 -5.643038 
16 1.182444 -2.186040 -5.755538 
6 1.184344 -1.339000 -5.387338 
6 1.895544 -0.673610 -5.228738 
4 2.812744 -0.876070 -5.371438 
4 3.083344 -0.822030 -6.278038 
5 2.847044 -1.567680 -6.940438 
13 1.949744 -1.971280 -6.993038 
16 1.382944 -2.757780 -6.817138 
4 0.633444 -2.333490 -7.103538 
16 -0.136356 -2.776460 -6.541738 
13 -0.086756 -2.370650 -5.690038 
16 0.400344 -2.753750 -4.930538 
6 0.819144 -2.037800 -4.433638 
10 1.260844 -2.836380 -4.159338 
17 2.026944 -2.896780 -3.452738 
16 1.387844 -2.065670 -3.367338 
6 0.864744 -1.748910 -2.648838 
1 0.890344 -1.713780 -1.635138 
4 1.746944 -1.689150 -1.176038 
16 1.557044 -2.626620 -1.196438 
9 1.249444 -3.545270 -1.084238 
9 0.293344 -3.798120 -1.166838 
16 0.666644 -3.986050 -2.079938 
10 1.008044 -4.093840 -2.981538 
1 0.480144 -4.788250 -3.288538 
4 0.242444 -4.056560 -3.854538 
13 -0.188556 -3.379320 -4.317638 
4 -0.374756 -4.181960 -4.743838 
16 0.133844 -3.998970 -5.530438 
13 -0.693056 -3.489200 -5.657438 
6 -1.515656 -3.013960 -5.757938 
16 -2.416656 -3.429310 -5.671038 
4 -2.107956 -4.376410 -5.612838 
7 -2.754756 -5.021260 -5.707838 
1 -3.111556 -5.930720 -5.587138 
17 -2.101556 -6.051060 -5.652738 
2 -1.825656 -6.656280 -4.856538 
12 -0.999656 -6.925910 -4.356938 
13 -0.634756 -7.767120 -3.966338 
1 -1.107156 -7.889810 -3.106438 
10 -1.599256 -7.166090 -2.793738 
9 -0.904956 -7.130130 -2.102138 
1 -0.060056 -7.259740 -2.683738 
4 0.507944 -7.866520 -2.161638 
13 0.792644 -8.313740 -3.066138 
1 0.918444 -9.335080 -3.311438 
16 1.519944 -9.939444 -3.753238 
4 1.429344 -9.773699 -4.688438 
10 0.513444 -9.827175 -4.485538 
5 -0.038656 -9.344110 -5.122438 
2 -0.618256 -8.581160 -5.338838 
17 -0.610856 -7.634940 -5.409138 
17 -1.444256 -7.768680 -5.799138 
4 -2.068456 -8.351990 -6.234438 
10 -1.377556 -8.910680 -6.627338 
8 -0.526056 -9.139700 -6.994538 
13 -0.915556 -8.429180 -7.517438 
17 -1.501256 -7.768390 -7.100138 
17 -1.314456 -6.929190 -7.459438 
13 -1.210056 -6.243170 -8.155138 
12 -0.743156 -5.641730 -8.784538 
1 0.270644 -5.604860 -9.020838 
7 -0.098656 -5.767840 -8.073038 
13 -0.289356 -4.830690 -7.982538 
8 0.505444 -5.174050 -7.510638 
8 1.236744 -4.548890 -7.340738 
16 0.911144 -3.952500 -6.620138 
13 0.141144 -3.653900 -7.173138 
4 -0.365956 -4.178770 -6.525338 
5 -0.891556 -4.945350 -6.869038 
4 -1.142656 -5.459960 -6.094738 
17 -1.174556 -6.176660 -6.648838 
17 -0.321656 -6.171560 -6.194738 
8 0.461644 -6.006150 -6.735338 
17 0.360044 -6.910840 -6.451138 
17 0.250844 -7.692770 -7.087338 
10 1.074444 -7.324950 -7.429738 
8 1.595644 -6.652280 -7.020138 
4 2.394944 -6.476760 -7.505638 
13 3.201044 -5.963570 -7.224438 
4 2.712044 -5.693550 -6.441038 
8 1.977844 -5.150430 -6.214238 
16 2.284644 -4.203290 -6.093738 
16 1.659644 -3.627400 -5.666038 
17 1.885344 -4.046820 -4.795538 
4 1.235144 -4.697910 -4.287538 
8 1.313744 -5.096720 -5.278138 
8 0.461444 -5.480740 -5.489538 
4 -0.419256 -5.318940 -5.177738 
14 -0.126056 -6.012810 -4.549238 
5 0.630544 -6.683740 -4.582438 
4 1.044644 -5.822060 -4.621938 
8 1.861244 -6.295740 -5.027238 
5 2.128544 -6.394850 -4.119638 
2 1.347644 -6.351050 -3.631438 
4 0.526444 -5.897310 -3.646538 
14 0.139244 -6.117620 -2.823938 
8 -0.409956 -5.381520 -2.530738 
16 -0.892256 -5.934180 -3.256138 
4 -0.667056 -5.036040 -3.556538 
4 -1.002956 -4.918010 -4.424638 
2 -1.838856 -5.283610 -4.645138 
10 -2.248456 -4.469120 -4.335638 
4 -1.526056 -3.964250 -4.723638 
13 -2.003456 -3.111180 -4.420038 
4 -1.379556 -2.977160 -3.745238 
13 -1.406156 -2.023400 -3.953938 
13 -1.766956 -1.818230 -4.792738 
5 -2.313456 -1.070380 -4.965738 
7 -2.761256 -0.396310 -4.552938 
4 -3.061056 -1.019580 -3.863638 
17 -3.204356 -0.400210 -3.170238 
6 -2.729756 -1.026970 -2.601338 
13 -2.173756 -1.411560 -3.320438 
13 -1.634856 -1.884040 -2.699538 
2 -1.269156 -2.730490 -2.370438 
4 -1.411456 -3.593670 -2.831338 
4 -0.547056 -3.900650 -2.748638 
5 0.086444 -3.136210 -2.736638 
14 -0.206556 -2.526390 -3.402138 
13 -0.381156 -1.775590 -3.959938 
13 -0.792056 -1.250580 -4.655638 
6 0.229444 -1.150010 -4.683238 
10 -0.073156 -0.959320 -5.538238 
9 -0.452756 -0.141010 -5.049438 
13 -0.674256 -0.405210 -4.193038 
6 0.229144 -0.092810 -3.912338 
6 1.175844 -0.163210 -3.639938 
1 0.735944 0.652990 -3.455438 
13 1.511544 1.260690 -3.288538 
13 2.068044 1.008990 -4.016538 
6 1.856144 0.113090 -4.268438 
4 2.330044 0.151390 -5.133838 
14 2.040744 0.190690 -6.075538 
6 1.170644 -0.142210 -6.059138 
17 0.638144 0.547190 -5.552038 
16 1.061744 1.346990 -5.271638 
2 0.886844 2.009890 -4.552938 
13 1.666044 1.976490 -3.931938 
5 1.329044 2.374190 -3.099438 
13 2.208544 2.627290 -2.732338 
8 1.783144 1.953390 -2.230338 
17 2.063744 2.655390 -1.553738 
1 1.521844 2.496990 -0.719338 
10 0.570744 2.686090 -0.935738 
16 0.692744 1.785290 -1.283938 
1 0.117344 1.959290 -0.462738 
4 -0.768656 1.381690 -0.584038 
8 -0.612456 1.523190 -1.541938 
4 -0.170956 0.649590 -1.493838 
5 -0.814356 0.234890 -2.000838 
13 -0.983556 -0.657050 -2.384638 
2 -0.150756 -1.032880 -1.937938 
1 0.444444 -0.282310 -1.859138 
1 1.037044 -0.753070 -2.521138 
6 1.714044 -0.964600 -3.245638 
13 1.989544 -1.539580 -2.515438 
17 2.542544 -2.270070 -2.780238 
17 2.997944 -1.487670 -3.097738 
1 2.655644 -1.315520 -3.962838 
4 2.942744 -0.330810 -3.803138 
4 3.393444 0.406590 -3.348138 
9 2.843244 0.505690 -2.501738 
2 1.932244 0.822790 -2.329438 
3 1.872944 -0.177610 -2.253538 
1 2.179044 -0.301110 -1.410038 
17 2.813144 -1.091250 -1.520938 
13 3.345844 -0.784790 -0.813738 
16 4.294544 -1.063380 -0.856538 
5 3.988544 -0.800430 -1.768538 
4 4.118544 -0.539710 -2.656738 
17 4.198444 -1.522670 -2.731338 
4 3.894144 -1.508820 -3.639138 
17 4.006544 -2.366740 -4.143238 
10 3.518744 -1.725330 -4.613638 
4 3.365444 -0.753650 -4.621338 
4 4.186844 -0.256310 -4.800138 
4 4.546544 -1.157970 -4.558338 
17 4.924644 -1.751160 -3.879738 
4 4.848244 -0.974720 -3.321838 
8 5.670844 -0.754760 -3.772938 
3 5.506444 -0.038410 -3.163138 
5 5.640644 0.172690 -2.239938 
17 5.428244 1.141890 -2.125038 
14 4.805944 0.721090 -2.752938 
9 4.135244 1.387690 -2.483838 
13 3.656044 1.976190 -3.013238 
13 3.457644 2.237190 -3.942138 
13 2.609944 2.667790 -3.988838 
2 1.806044 3.155490 -4.120638 
10 2.543444 3.512390 -4.650338 
8 2.591544 4.069490 -5.421638 
4 3.320844 4.223390 -4.791938 
5 2.830644 4.960690 -4.697638 
8 2.607044 5.400990 -5.537838 
4 3.540544 5.235490 -5.518738 
10 4.156144 4.405190 -5.537938 
13 3.971844 3.512090 -5.238838 
7 4.775244 3.286590 -5.638838 
13 4.089544 2.534990 -5.688938 
10 3.949944 1.688990 -6.096738 
4 3.293744 1.003690 -6.194838 
4 2.968844 1.146990 -5.368038 
13 2.803944 1.968690 -5.833238 
17 2.893144 2.415590 -6.772638 
6 2.154144 2.979890 -7.002938 
8 2.039044 3.733690 -6.486338 
8 1.700244 4.493790 -7.057238 
10 1.546244 5.405990 -6.930038 
13 0.625744 5.210690 -7.333638 
5 0.091244 6.073390 -7.331838 
10 0.362044 5.784190 -6.350838 
5 -0.285256 5.275990 -6.755938 
13 -0.675456 4.495290 -7.124938 
10 -0.491856 3.737490 -6.607138 
2 -0.383456 2.979390 -5.994038 
8 0.541744 2.926890 -6.065138 
10 1.426044 2.550390 -6.090838 
13 2.140044 2.657390 -5.369738 
2 1.297744 2.964790 -4.965238 
8 1.379344 3.859290 -5.376338 
2 0.402044 3.770390 -5.300138 
8 0.711844 4.646390 -5.477838 
10 0.087144 5.289490 -4.939038 
2 0.018044 4.452190 -4.510338 
2 -0.064356 3.492490 -4.381038 
2 -0.905656 3.030490 -4.516238 
2 -0.462956 2.204890 -4.262138 
5 -0.633656 1.510090 -3.612138 
10 -1.126756 2.225690 -3.225938 
2 -1.503656 3.053390 -3.639438 
2 -1.090156 3.197890 -2.761338 
10 -0.463356 3.735890 -2.250238 
10 -0.608456 2.945890 -1.785238 
5 -0.453456 2.257990 -2.369638 
2 0.217844 2.119690 -3.036638 
2 0.586444 2.985790 -2.740838 
10 0.898244 3.208590 -1.865738 
10 1.126444 3.576690 -1.030938 
10 0.794044 4.449090 -0.762238 
14 0.991644 5.390990 -0.668938 
10 1.011344 5.335790 -1.605038 
1 1.662744 5.908090 -1.956138 
14 0.782944 6.158290 -2.273338 
14 -0.144756 6.536990 -2.140938 
14 -0.102756 5.572890 -2.002638 
10 -0.350856 4.686890 -1.613438 
14 -0.145956 5.323790 -0.920138 
10 -0.203456 4.447590 -0.512738 
10 -0.655656 3.672190 -0.161838 
10 -0.577056 2.908290 -0.771438 
4 -1.506556 2.523790 -0.700538 
14 -1.903656 2.528490 -1.542038 
1 -2.030056 3.255390 -2.135538 
10 -1.755956 4.220690 -2.013938 
5 -2.642156 4.588890 -2.346938 
1 -3.309756 4.788590 -2.960438 
17 -3.422956 5.241690 -3.790938 
5 -3.215356 5.977990 -3.208938 
10 -2.530956 6.577990 -3.328738 
14 -1.642056 6.741190 -2.968438 
14 -0.722856 6.727890 -3.129738 
10 -0.194056 7.143390 -3.883038 
14 -0.268656 7.756490 -3.025338 
1 -0.422656 8.498090 -2.506338 
5 -1.250456 8.691790 -2.045738 
13 -1.047956 9.378590 -2.732238 
1 -1.658456 8.643690 -2.942438 
10 -1.004856 8.228990 -3.718338 
1 -0.981256 8.582790 -4.642738 
10 -1.915356 8.351490 -4.769438 
1 -1.681156 8.755490 -5.578238 
5 -1.600456 7.967190 -6.155338 
10 -1.864456 7.492490 -5.396438 
1 -2.629556 7.380390 -6.048238 
5 -2.574956 6.984290 -6.983038 
10 -3.028756 7.476590 -7.783638 
1 -3.639656 6.949290 -7.246538 
5 -3.293256 6.186890 -6.745638 
1 -3.608056 5.268690 -6.878838 
5 -2.798856 5.198290 -7.462138 
10 -2.539256 5.244490 -8.436138 
5 -1.826156 5.868190 -8.136538 
5 -1.681056 6.731890 -7.765838 
10 -0.873556 6.719190 -8.335538 
5 -0.797456 7.021290 -7.354038 
5 -0.711456 7.703790 -6.657238 
11 -0.415656 8.196690 -5.948138 
15 0.156244 7.417890 -5.774438 
10 -0.047556 7.393190 -4.840838 
10 -0.667556 6.909590 -5.425238 
5 -0.560156 6.501290 -6.321238 
10 -0.712556 5.933890 -5.574738 
5 -1.419856 5.753190 -6.259838 
5 -1.573156 5.055690 -6.842138 
2 -1.444256 4.587390 -6.004438 
15 -2.303656 4.269190 -5.815238 
4 -2.953856 4.824890 -5.340038 
10 -2.329356 5.553690 -5.357338 
5 -3.123356 5.998490 -5.568338 
5 -2.314156 6.396590 -5.946838 
10 -2.697856 6.825290 -5.137438 
15 -3.403956 6.990790 -4.528538 
13 -2.826656 7.517190 -3.947738 
10 -2.007556 7.049490 -4.159438 
10 -1.268556 6.486190 -4.061438 
14 -1.038756 5.724290 -3.506638 
10 -1.307156 5.521690 -4.458038 
2 -0.980956 4.604590 -4.618838 
2 -1.659656 3.959590 -4.599638 
8 -2.278156 4.668090 -4.322538 
10 -2.242856 5.248690 -3.482438 
2 -1.492956 4.696790 -3.257438 
14 -0.715656 5.009190 -2.823638 
1 -0.080256 4.807390 -3.423238 
2 0.206444 3.935490 -3.447438 
2 1.118044 3.667490 -3.269238 
10 1.628744 3.843090 -2.515338 
13 2.559244 3.849290 -2.801438 
1 2.339844 4.732790 -2.285638 
1 2.360244 4.962690 -3.155738 
1 2.057044 5.765690 -3.538938 
14 1.100444 6.009690 -3.322438 
1 1.007544 5.228090 -3.918538 
10 0.894944 5.925090 -4.574238 
8 1.424644 5.773890 -5.417138 
2 1.695744 6.564290 -4.917538 
10 0.925444 7.055090 -4.633038 
2 1.831344 7.271190 -4.175738 
12 1.677744 8.052290 -3.645738 
1 2.545744 8.448590 -3.541338 
4 3.207644 9.117290 -3.943738 
7 2.946644 9.902690 -3.402338 
3 3.466044 10.519590 -2.808738 
2 4.008744 11.233790 -2.498838 
1 4.253944 10.551690 -1.792138 
1 5.060544 10.247490 -1.127238 
10 4.695544 9.645890 -0.370838 
1 4.083144 8.918190 -0.227338 
2 3.527344 9.660390 -0.060338 
1 3.046844 9.141590 -0.797438 
1 2.630544 8.948290 0.038562 
1 1.756444 9.120290 -0.512838 
4 2.019444 10.088790 -0.545238 
1 1.519944 10.222990 0.319062 
7 1.370444 9.750790 1.092562 
1 0.840444 10.319590 1.562962 
10 0.814444 11.219090 1.222462 
1 1.442744 11.578590 0.613362 
10 0.901044 12.198690 1.176062 
4 1.029644 13.082690 1.553662 
1 0.860744 13.996090 2.033462 
1 0.134444 13.376190 2.104962 
15 -0.576856 13.197590 2.724362 
2 -0.834056 13.157190 3.661162 
1 -1.576356 12.709290 4.138962 
1 -2.300556 12.003690 4.024762 
1 -1.785556 11.181790 4.136262 
10 -1.417556 11.256290 3.219562 
1 -1.526056 12.080190 2.782862 
10 -1.762756 11.594090 2.027562 
4 -2.774256 11.507690 2.279562 
10 -2.461956 10.759490 1.778562 
1 -3.284256 10.322090 2.167962 
4 -3.642156 9.699590 1.592562 
10 -2.901256 9.446790 1.083462 
2 -2.811156 8.851190 1.822562 
8 -2.539656 8.558190 2.715162 
10 -2.418756 9.542590 2.691162 
17 -1.832856 9.819490 3.414062 
10 -1.414356 9.447290 2.632962 
8 -1.144856 8.487290 2.567262 
2 -1.323956 8.051490 1.722662 
10 -1.075056 9.023090 1.643462 
14 -0.279056 8.630290 1.270762 
10 -0.037556 8.260690 2.128962 
2 -0.482556 7.413790 1.897862 
14 0.111244 6.873990 2.459362 
10 -0.202056 6.563690 3.379062 
8 -0.825056 5.972990 3.823162 
8 -1.484256 5.351590 3.283362 
5 -0.785856 4.835190 2.900762 
10 -0.004156 5.153990 2.400962 
13 0.088944 5.916490 1.721962 
5 -0.953256 5.705190 1.663962 
2 -0.642056 6.489490 1.321562 
5 -0.507356 5.815590 0.628062 
14 -0.197556 6.342590 -0.132538 
2 -0.456056 7.275390 -0.128838 
17 0.318344 7.796090 -0.555138 
10 0.675344 7.399590 -1.367738 
14 -0.279156 7.233890 -1.401638 
5 -0.146356 8.152290 -1.583738 
13 -0.471556 8.959090 -1.113338 
13 -0.637156 8.678290 -0.186738 
2 -1.389156 8.404390 0.402262 
10 -1.930556 9.133990 0.731762 
5 -2.522756 8.384990 0.591562 
2 -2.061456 7.566190 0.718062 
2 -1.695156 6.698490 0.547162 
14 -1.329856 6.352990 -0.236738 
5 -1.031256 5.408290 -0.194938 
10 -1.147556 4.963790 -0.991238 
14 -1.630956 5.625090 -1.488338 
14 -1.699656 6.570390 -1.569838 
2 -2.227356 7.154390 -1.002338 
2 -2.520956 7.934090 -0.352538 
5 -2.098356 8.736590 -0.578838 
13 -1.633656 9.577690 -0.780338 
4 -2.325456 9.876590 -0.128838 
10 -2.069956 10.305690 0.743362 
4 -2.769656 10.866690 0.320562 
5 -2.843156 11.308890 -0.517438 
14 -2.230656 11.708690 -1.218438 
1 -1.529656 11.918290 -0.531638 
10 -0.637056 11.916490 -0.213638 
10 -0.473756 10.927090 -0.284438 
13 -0.384956 10.575590 -1.160538 
13 0.122444 9.734590 -1.236038 
13 0.478944 10.103990 -0.346738 
10 -0.040556 10.384290 0.549062 
13 -0.113256 9.446290 0.520562 
10 -0.121756 9.677290 1.449462 
10 -0.897656 10.020490 1.915362 
10 -1.388956 10.737090 1.502962 
10 -0.999756 11.014290 0.641462 
10 -0.922456 11.728690 1.329062 
10 -0.078156 11.946590 1.719862 
10 0.279944 11.273490 2.330462 
10 0.084744 10.313490 2.410962 
10 -0.643256 10.156790 2.984262 
4 0.112344 9.826690 3.422962 
10 -0.612856 9.140390 3.608962 
8 -1.087156 8.587890 4.176262 
13 -1.191356 7.721090 4.381962 
8 -1.340856 7.086490 3.668162 
2 -1.548056 7.332290 2.713562 
8 -2.286056 6.993990 3.273262 
2 -2.361756 6.735490 2.335262 
5 -2.200456 5.959590 1.704062 
8 -2.700056 5.952890 0.940962 
2 -2.602256 6.848790 1.236262 
2 -3.225656 7.522790 0.976562 
8 -3.611956 7.572990 1.864062 
10 -3.958756 7.514790 2.798062 
4 -4.040556 6.926190 3.534362 
5 -3.178256 6.712490 3.704262 
13 -2.926956 6.722990 4.671362 
4 -2.710856 5.917490 5.237562 
14 -3.405356 5.532790 4.626162 
17 -2.973556 4.790190 4.058662 
2 -2.942056 5.006690 3.166262 
8 -2.414356 5.785090 3.028362 
13 -3.037456 5.636790 2.335262 
1 -2.708156 4.882890 1.852062 
1 -2.284556 4.033990 1.883562 
5 -1.960456 4.652990 1.197762 
10 -1.586256 3.807290 0.778862 
4 -1.541956 2.901690 0.274562 
1 -2.498456 3.098990 0.232562 
4 -2.508856 2.250790 -0.202138 
17 -3.286756 2.506990 -0.756638 
6 -3.472056 3.278390 -1.305938 
1 -4.185156 2.647390 -1.597338 
8 -3.771756 2.652690 -2.464938 
17 -3.293256 1.777790 -2.422438 
17 -2.667756 1.286490 -1.884038 
4 -1.694156 1.415390 -1.770738 
5 -1.949156 1.674990 -2.725638 
17 -2.726856 1.200290 -3.145838 
17 -2.537156 0.267390 -3.481838 
13 -1.769756 -0.202310 -3.307238 
1 -1.967356 0.024390 -2.409738 
17 -2.315656 0.247390 -1.510238 
4 -2.155056 0.296290 -0.582238 
13 -2.676456 -0.369510 -0.099038 
13 -2.810456 0.063090 0.763062 
1 -3.348656 0.809790 0.523562 
4 -2.544256 1.266390 0.246762 
17 -3.208956 1.005790 -0.455138 
17 -4.106656 0.849190 -0.543338 
17 -4.480656 0.976790 -1.374738 
17 -4.145956 1.119890 -2.260338 
17 -4.118156 0.110290 -2.218438 
6 -4.114856 -0.745740 -1.745738 
17 -3.183856 -0.475810 -1.805238 
16 -2.420556 -1.105340 -1.563138 
10 -1.602156 -0.789730 -1.354338 
4 -0.666056 -0.478410 -1.200438 
5 -0.686056 -1.369330 -0.955638 
9 0.129744 -1.729920 -0.532238 
4 0.248044 -0.827900 -0.231338 
2 -0.595056 -1.239640 0.186862 
13 -0.982056 -0.930430 0.988762 
4 -0.345256 -0.232410 0.642462 
8 -0.246156 0.515490 1.344162 
6 0.172844 1.389490 1.350262 
6 -0.418856 2.186190 1.256762 
4 -0.480356 2.320390 0.341362 
10 -0.234856 3.243790 0.702962 
17 -0.150256 3.901690 1.347662 
5 -0.892956 4.255990 1.928262 
4 -0.294156 3.823590 2.594662 
6 -0.374956 2.838590 2.131162 
17 -1.206056 3.001390 1.751462 
6 -1.348456 2.095590 1.946262 
4 -1.143556 1.355490 1.288362 
16 -1.959856 0.878890 1.519262 
6 -2.388956 0.114990 1.817562 
13 -1.495356 -0.178410 1.633062 
2 -1.448256 0.153590 0.701562 
4 -1.276156 0.681890 -0.062738 
4 -1.143156 -0.258110 -0.381538 
13 -1.520656 -1.094260 -0.161038 
14 -1.315156 -1.991800 -0.405438 
11 -1.567856 -2.814880 -0.762838 
5 -2.327656 -2.331400 -1.033938 
6 -2.989856 -1.673420 -0.670238 
13 -2.502556 -1.680000 0.206162 
8 -3.188756 -2.323290 0.149362 
4 -4.064656 -2.432970 -0.237838 
8 -4.787256 -1.864320 -0.502838 
6 -4.039856 -1.651200 -1.045138 
13 -3.814356 -1.212250 -0.270738 
5 -4.600456 -0.669330 -0.289838 
6 -5.303456 -1.065590 -0.884438 
10 -6.263756 -1.175830 -0.889338 
16 -6.190756 -1.809400 -0.151238 
2 -6.244256 -2.644220 0.179862 
4 -5.248956 -2.689430 0.110362 
4 -4.787356 -2.310470 0.896762 
13 -4.016356 -1.651670 1.003562 
14 -4.493756 -0.828110 1.224762 
13 -3.592356 -0.619110 1.652062 
3 -3.944956 0.040990 2.216062 
5 -3.837156 -0.762110 2.768462 
8 -2.933556 -0.922650 2.589062 
13 -2.622656 -0.897070 1.698862 
13 -2.517656 -1.723350 1.199462 
7 -2.391056 -2.709720 0.984962 
3 -2.204956 -3.100950 1.795362 
13 -1.406156 -2.531980 1.586662 
9 -0.573156 -2.872540 1.339162 
16 -0.894956 -3.391590 2.057762 
9 -0.959256 -3.774360 1.110462 
16 -1.301856 -4.647700 0.936262 
7 -1.752956 -4.200450 1.632562 
10 -2.516756 -4.076770 0.987662 
4 -3.459656 -3.885990 0.748662 
3 -3.588356 -3.106560 1.368562 
4 -4.505956 -3.187590 1.640562 
13 -4.312556 -2.419620 2.132662 
3 -4.136156 -3.171120 2.859462 
2 -4.997956 -3.680470 2.748262 
4 -5.653356 -3.843990 2.082662 
13 -5.159556 -4.663320 1.846862 
4 -4.730956 -4.071200 1.137362 
3 -4.180556 -4.285500 1.965862 
17 -3.387656 -4.794360 2.025662 
13 -3.513756 -5.511240 1.391862 
4 -3.846056 -5.142620 0.596562 
17 -4.427856 -5.859180 0.473262 
16 -5.257556 -5.985220 1.022962 
8 -5.880956 -5.144510 0.991862 
7 -5.991056 -4.548720 0.216562 
4 -5.253256 -3.866060 0.208062 
16 -5.877956 -3.700290 -0.536638 
9 -6.584056 -3.025440 -0.739638 
9 -7.243356 -2.573220 -1.362438 
14 -6.473056 -2.163830 -1.745338 
6 -5.855756 -1.623200 -2.353038 
15 -6.410856 -0.793180 -2.242038 
3 -5.633356 -0.425710 -2.771838 
1 -4.721656 -0.276210 -2.954338 
12 -4.186756 -0.758480 -3.599638 
6 -4.333756 -1.251940 -2.785638 
1 -4.741756 -2.137360 -2.631538 
16 -4.355056 -3.046950 -2.859038 
8 -5.362756 -3.092800 -2.601138 
16 -4.897256 -3.983300 -2.907438 
17 -5.268056 -4.882380 -2.902938 